V -t * -v 1.0a5 -a 0
A -t * -n 1 -p 0 -o 0x7fffffff -c 30 -a 1
A -t * -h 1 -m 1073741823 -s 0
c -t * -i 0 -n blue
c -t * -i 1 -n red
c -t * -i 2 -n green
n -t * -a 8 -s 8 -S UP -v circle -c black -i black
n -t * -a 4 -s 4 -S UP -v circle -c black -i black
n -t * -a 0 -s 0 -S UP -v circle -c black -i black
n -t * -a 10 -s 10 -S UP -v circle -c black -i black
n -t * -a 9 -s 9 -S UP -v circle -c black -i black
n -t * -a 5 -s 5 -S UP -v circle -c black -i black
n -t * -a 1 -s 1 -S UP -v circle -c black -i black
n -t * -a 6 -s 6 -S UP -v circle -c black -i black
n -t * -a 2 -s 2 -S UP -v circle -c black -i black
n -t * -a 7 -s 7 -S UP -v circle -c black -i black
n -t * -a 3 -s 3 -S UP -v circle -c black -i black
l -t * -s 1 -d 3 -S UP -r 5000000 -D 0.002 -c black
l -t * -s 3 -d 7 -S UP -r 1500000 -D 0.002 -c black
l -t * -s 7 -d 9 -S UP -r 5000000 -D 0.002 -c black
l -t * -s 9 -d 10 -S UP -r 5000000 -D 0.002 -c black
l -t * -s 3 -d 2 -S UP -r 5000000 -D 0.002 -c black
l -t * -s 3 -d 6 -S UP -r 5000000 -D 0.002 -c black
l -t * -s 7 -d 8 -S UP -r 5000000 -D 0.002 -c black
l -t * -s 4 -d 3 -S UP -r 5000000 -D 0.002 -c black
l -t * -s 3 -d 5 -S UP -r 5000000 -D 0.002 -c black
l -t * -s 5 -d 7 -S UP -r 5000000 -D 0.002 -c black
+ -t 0 -s 1 -d 3 -p cbr -e 210 -c 1 -i 0 -a 1 -x {1.0 3.0 0 ------- null}
- -t 0 -s 1 -d 3 -p cbr -e 210 -c 1 -i 0 -a 1 -x {1.0 3.0 0 ------- null}
h -t 0 -s 1 -d 3 -p cbr -e 210 -c 1 -i 0 -a 1 -x {1.0 3.0 -1 ------- null}
r -t 0.002336 -s 1 -d 3 -p cbr -e 210 -c 1 -i 0 -a 1 -x {1.0 3.0 0 ------- null}
+ -t 0.00375 -s 1 -d 3 -p cbr -e 210 -c 1 -i 1 -a 1 -x {1.0 3.0 1 ------- null}
- -t 0.00375 -s 1 -d 3 -p cbr -e 210 -c 1 -i 1 -a 1 -x {1.0 3.0 1 ------- null}
h -t 0.00375 -s 1 -d 3 -p cbr -e 210 -c 1 -i 1 -a 1 -x {1.0 3.0 -1 ------- null}
r -t 0.006086 -s 1 -d 3 -p cbr -e 210 -c 1 -i 1 -a 1 -x {1.0 3.0 1 ------- null}
+ -t 0.0075 -s 1 -d 3 -p cbr -e 210 -c 1 -i 2 -a 1 -x {1.0 3.0 2 ------- null}
- -t 0.0075 -s 1 -d 3 -p cbr -e 210 -c 1 -i 2 -a 1 -x {1.0 3.0 2 ------- null}
h -t 0.0075 -s 1 -d 3 -p cbr -e 210 -c 1 -i 2 -a 1 -x {1.0 3.0 -1 ------- null}
r -t 0.009836 -s 1 -d 3 -p cbr -e 210 -c 1 -i 2 -a 1 -x {1.0 3.0 2 ------- null}
+ -t 0.01125 -s 1 -d 3 -p cbr -e 210 -c 1 -i 3 -a 1 -x {1.0 3.0 3 ------- null}
- -t 0.01125 -s 1 -d 3 -p cbr -e 210 -c 1 -i 3 -a 1 -x {1.0 3.0 3 ------- null}
h -t 0.01125 -s 1 -d 3 -p cbr -e 210 -c 1 -i 3 -a 1 -x {1.0 3.0 -1 ------- null}
r -t 0.013586 -s 1 -d 3 -p cbr -e 210 -c 1 -i 3 -a 1 -x {1.0 3.0 3 ------- null}
+ -t 0.015 -s 1 -d 3 -p cbr -e 210 -c 1 -i 4 -a 1 -x {1.0 3.0 4 ------- null}
- -t 0.015 -s 1 -d 3 -p cbr -e 210 -c 1 -i 4 -a 1 -x {1.0 3.0 4 ------- null}
h -t 0.015 -s 1 -d 3 -p cbr -e 210 -c 1 -i 4 -a 1 -x {1.0 3.0 -1 ------- null}
r -t 0.017336 -s 1 -d 3 -p cbr -e 210 -c 1 -i 4 -a 1 -x {1.0 3.0 4 ------- null}
+ -t 0.01875 -s 1 -d 3 -p cbr -e 210 -c 1 -i 5 -a 1 -x {1.0 3.0 5 ------- null}
- -t 0.01875 -s 1 -d 3 -p cbr -e 210 -c 1 -i 5 -a 1 -x {1.0 3.0 5 ------- null}
h -t 0.01875 -s 1 -d 3 -p cbr -e 210 -c 1 -i 5 -a 1 -x {1.0 3.0 -1 ------- null}
r -t 0.021086 -s 1 -d 3 -p cbr -e 210 -c 1 -i 5 -a 1 -x {1.0 3.0 5 ------- null}
+ -t 0.0225 -s 1 -d 3 -p cbr -e 210 -c 1 -i 6 -a 1 -x {1.0 3.0 6 ------- null}
- -t 0.0225 -s 1 -d 3 -p cbr -e 210 -c 1 -i 6 -a 1 -x {1.0 3.0 6 ------- null}
h -t 0.0225 -s 1 -d 3 -p cbr -e 210 -c 1 -i 6 -a 1 -x {1.0 3.0 -1 ------- null}
r -t 0.024836 -s 1 -d 3 -p cbr -e 210 -c 1 -i 6 -a 1 -x {1.0 3.0 6 ------- null}
+ -t 0.02625 -s 1 -d 3 -p cbr -e 210 -c 1 -i 7 -a 1 -x {1.0 3.0 7 ------- null}
- -t 0.02625 -s 1 -d 3 -p cbr -e 210 -c 1 -i 7 -a 1 -x {1.0 3.0 7 ------- null}
h -t 0.02625 -s 1 -d 3 -p cbr -e 210 -c 1 -i 7 -a 1 -x {1.0 3.0 -1 ------- null}
r -t 0.028586 -s 1 -d 3 -p cbr -e 210 -c 1 -i 7 -a 1 -x {1.0 3.0 7 ------- null}
+ -t 0.03 -s 1 -d 3 -p cbr -e 210 -c 1 -i 8 -a 1 -x {1.0 3.0 8 ------- null}
- -t 0.03 -s 1 -d 3 -p cbr -e 210 -c 1 -i 8 -a 1 -x {1.0 3.0 8 ------- null}
h -t 0.03 -s 1 -d 3 -p cbr -e 210 -c 1 -i 8 -a 1 -x {1.0 3.0 -1 ------- null}
r -t 0.032336 -s 1 -d 3 -p cbr -e 210 -c 1 -i 8 -a 1 -x {1.0 3.0 8 ------- null}
+ -t 0.03375 -s 1 -d 3 -p cbr -e 210 -c 1 -i 9 -a 1 -x {1.0 3.0 9 ------- null}
- -t 0.03375 -s 1 -d 3 -p cbr -e 210 -c 1 -i 9 -a 1 -x {1.0 3.0 9 ------- null}
h -t 0.03375 -s 1 -d 3 -p cbr -e 210 -c 1 -i 9 -a 1 -x {1.0 3.0 -1 ------- null}
r -t 0.036086 -s 1 -d 3 -p cbr -e 210 -c 1 -i 9 -a 1 -x {1.0 3.0 9 ------- null}
+ -t 0.0375 -s 1 -d 3 -p cbr -e 210 -c 1 -i 10 -a 1 -x {1.0 3.0 10 ------- null}
- -t 0.0375 -s 1 -d 3 -p cbr -e 210 -c 1 -i 10 -a 1 -x {1.0 3.0 10 ------- null}
h -t 0.0375 -s 1 -d 3 -p cbr -e 210 -c 1 -i 10 -a 1 -x {1.0 3.0 -1 ------- null}
r -t 0.039836 -s 1 -d 3 -p cbr -e 210 -c 1 -i 10 -a 1 -x {1.0 3.0 10 ------- null}
+ -t 0.04125 -s 1 -d 3 -p cbr -e 210 -c 1 -i 11 -a 1 -x {1.0 3.0 11 ------- null}
- -t 0.04125 -s 1 -d 3 -p cbr -e 210 -c 1 -i 11 -a 1 -x {1.0 3.0 11 ------- null}
h -t 0.04125 -s 1 -d 3 -p cbr -e 210 -c 1 -i 11 -a 1 -x {1.0 3.0 -1 ------- null}
r -t 0.043586 -s 1 -d 3 -p cbr -e 210 -c 1 -i 11 -a 1 -x {1.0 3.0 11 ------- null}
+ -t 0.045 -s 1 -d 3 -p cbr -e 210 -c 1 -i 12 -a 1 -x {1.0 3.0 12 ------- null}
- -t 0.045 -s 1 -d 3 -p cbr -e 210 -c 1 -i 12 -a 1 -x {1.0 3.0 12 ------- null}
h -t 0.045 -s 1 -d 3 -p cbr -e 210 -c 1 -i 12 -a 1 -x {1.0 3.0 -1 ------- null}
r -t 0.047336 -s 1 -d 3 -p cbr -e 210 -c 1 -i 12 -a 1 -x {1.0 3.0 12 ------- null}
+ -t 0.04875 -s 1 -d 3 -p cbr -e 210 -c 1 -i 13 -a 1 -x {1.0 3.0 13 ------- null}
- -t 0.04875 -s 1 -d 3 -p cbr -e 210 -c 1 -i 13 -a 1 -x {1.0 3.0 13 ------- null}
h -t 0.04875 -s 1 -d 3 -p cbr -e 210 -c 1 -i 13 -a 1 -x {1.0 3.0 -1 ------- null}
r -t 0.051086 -s 1 -d 3 -p cbr -e 210 -c 1 -i 13 -a 1 -x {1.0 3.0 13 ------- null}
+ -t 0.0525 -s 1 -d 3 -p cbr -e 210 -c 1 -i 14 -a 1 -x {1.0 3.0 14 ------- null}
- -t 0.0525 -s 1 -d 3 -p cbr -e 210 -c 1 -i 14 -a 1 -x {1.0 3.0 14 ------- null}
h -t 0.0525 -s 1 -d 3 -p cbr -e 210 -c 1 -i 14 -a 1 -x {1.0 3.0 -1 ------- null}
r -t 0.054836 -s 1 -d 3 -p cbr -e 210 -c 1 -i 14 -a 1 -x {1.0 3.0 14 ------- null}
+ -t 0.05625 -s 1 -d 3 -p cbr -e 210 -c 1 -i 15 -a 1 -x {1.0 3.0 15 ------- null}
- -t 0.05625 -s 1 -d 3 -p cbr -e 210 -c 1 -i 15 -a 1 -x {1.0 3.0 15 ------- null}
h -t 0.05625 -s 1 -d 3 -p cbr -e 210 -c 1 -i 15 -a 1 -x {1.0 3.0 -1 ------- null}
r -t 0.058586 -s 1 -d 3 -p cbr -e 210 -c 1 -i 15 -a 1 -x {1.0 3.0 15 ------- null}
+ -t 0.06 -s 1 -d 3 -p cbr -e 210 -c 1 -i 16 -a 1 -x {1.0 3.0 16 ------- null}
- -t 0.06 -s 1 -d 3 -p cbr -e 210 -c 1 -i 16 -a 1 -x {1.0 3.0 16 ------- null}
h -t 0.06 -s 1 -d 3 -p cbr -e 210 -c 1 -i 16 -a 1 -x {1.0 3.0 -1 ------- null}
r -t 0.062336 -s 1 -d 3 -p cbr -e 210 -c 1 -i 16 -a 1 -x {1.0 3.0 16 ------- null}
+ -t 0.06375 -s 1 -d 3 -p cbr -e 210 -c 1 -i 17 -a 1 -x {1.0 3.0 17 ------- null}
- -t 0.06375 -s 1 -d 3 -p cbr -e 210 -c 1 -i 17 -a 1 -x {1.0 3.0 17 ------- null}
h -t 0.06375 -s 1 -d 3 -p cbr -e 210 -c 1 -i 17 -a 1 -x {1.0 3.0 -1 ------- null}
r -t 0.066086 -s 1 -d 3 -p cbr -e 210 -c 1 -i 17 -a 1 -x {1.0 3.0 17 ------- null}
+ -t 0.0675 -s 1 -d 3 -p cbr -e 210 -c 1 -i 18 -a 1 -x {1.0 3.0 18 ------- null}
- -t 0.0675 -s 1 -d 3 -p cbr -e 210 -c 1 -i 18 -a 1 -x {1.0 3.0 18 ------- null}
h -t 0.0675 -s 1 -d 3 -p cbr -e 210 -c 1 -i 18 -a 1 -x {1.0 3.0 -1 ------- null}
r -t 0.069836 -s 1 -d 3 -p cbr -e 210 -c 1 -i 18 -a 1 -x {1.0 3.0 18 ------- null}
+ -t 0.07125 -s 1 -d 3 -p cbr -e 210 -c 1 -i 19 -a 1 -x {1.0 3.0 19 ------- null}
- -t 0.07125 -s 1 -d 3 -p cbr -e 210 -c 1 -i 19 -a 1 -x {1.0 3.0 19 ------- null}
h -t 0.07125 -s 1 -d 3 -p cbr -e 210 -c 1 -i 19 -a 1 -x {1.0 3.0 -1 ------- null}
r -t 0.073586 -s 1 -d 3 -p cbr -e 210 -c 1 -i 19 -a 1 -x {1.0 3.0 19 ------- null}
+ -t 0.075 -s 1 -d 3 -p cbr -e 210 -c 1 -i 20 -a 1 -x {1.0 3.0 20 ------- null}
- -t 0.075 -s 1 -d 3 -p cbr -e 210 -c 1 -i 20 -a 1 -x {1.0 3.0 20 ------- null}
h -t 0.075 -s 1 -d 3 -p cbr -e 210 -c 1 -i 20 -a 1 -x {1.0 3.0 -1 ------- null}
r -t 0.077336 -s 1 -d 3 -p cbr -e 210 -c 1 -i 20 -a 1 -x {1.0 3.0 20 ------- null}
+ -t 0.07875 -s 1 -d 3 -p cbr -e 210 -c 1 -i 21 -a 1 -x {1.0 3.0 21 ------- null}
- -t 0.07875 -s 1 -d 3 -p cbr -e 210 -c 1 -i 21 -a 1 -x {1.0 3.0 21 ------- null}
h -t 0.07875 -s 1 -d 3 -p cbr -e 210 -c 1 -i 21 -a 1 -x {1.0 3.0 -1 ------- null}
r -t 0.081086 -s 1 -d 3 -p cbr -e 210 -c 1 -i 21 -a 1 -x {1.0 3.0 21 ------- null}
+ -t 0.0825 -s 1 -d 3 -p cbr -e 210 -c 1 -i 22 -a 1 -x {1.0 3.0 22 ------- null}
- -t 0.0825 -s 1 -d 3 -p cbr -e 210 -c 1 -i 22 -a 1 -x {1.0 3.0 22 ------- null}
h -t 0.0825 -s 1 -d 3 -p cbr -e 210 -c 1 -i 22 -a 1 -x {1.0 3.0 -1 ------- null}
r -t 0.0848360000000001 -s 1 -d 3 -p cbr -e 210 -c 1 -i 22 -a 1 -x {1.0 3.0 22 ------- null}
+ -t 0.08625 -s 1 -d 3 -p cbr -e 210 -c 1 -i 23 -a 1 -x {1.0 3.0 23 ------- null}
- -t 0.08625 -s 1 -d 3 -p cbr -e 210 -c 1 -i 23 -a 1 -x {1.0 3.0 23 ------- null}
h -t 0.08625 -s 1 -d 3 -p cbr -e 210 -c 1 -i 23 -a 1 -x {1.0 3.0 -1 ------- null}
r -t 0.0885860000000001 -s 1 -d 3 -p cbr -e 210 -c 1 -i 23 -a 1 -x {1.0 3.0 23 ------- null}
+ -t 0.0900000000000001 -s 1 -d 3 -p cbr -e 210 -c 1 -i 24 -a 1 -x {1.0 3.0 24 ------- null}
- -t 0.0900000000000001 -s 1 -d 3 -p cbr -e 210 -c 1 -i 24 -a 1 -x {1.0 3.0 24 ------- null}
h -t 0.0900000000000001 -s 1 -d 3 -p cbr -e 210 -c 1 -i 24 -a 1 -x {1.0 3.0 -1 ------- null}
r -t 0.0923360000000001 -s 1 -d 3 -p cbr -e 210 -c 1 -i 24 -a 1 -x {1.0 3.0 24 ------- null}
+ -t 0.0937500000000001 -s 1 -d 3 -p cbr -e 210 -c 1 -i 25 -a 1 -x {1.0 3.0 25 ------- null}
- -t 0.0937500000000001 -s 1 -d 3 -p cbr -e 210 -c 1 -i 25 -a 1 -x {1.0 3.0 25 ------- null}
h -t 0.0937500000000001 -s 1 -d 3 -p cbr -e 210 -c 1 -i 25 -a 1 -x {1.0 3.0 -1 ------- null}
r -t 0.0960860000000001 -s 1 -d 3 -p cbr -e 210 -c 1 -i 25 -a 1 -x {1.0 3.0 25 ------- null}
+ -t 0.0975000000000001 -s 1 -d 3 -p cbr -e 210 -c 1 -i 26 -a 1 -x {1.0 3.0 26 ------- null}
- -t 0.0975000000000001 -s 1 -d 3 -p cbr -e 210 -c 1 -i 26 -a 1 -x {1.0 3.0 26 ------- null}
h -t 0.0975000000000001 -s 1 -d 3 -p cbr -e 210 -c 1 -i 26 -a 1 -x {1.0 3.0 -1 ------- null}
r -t 0.0998360000000001 -s 1 -d 3 -p cbr -e 210 -c 1 -i 26 -a 1 -x {1.0 3.0 26 ------- null}
+ -t 0.1 -s 3 -d 7 -p cbr -e 210 -c 1 -i 27 -a 1 -x {3.1 7.0 0 ------- null}
- -t 0.1 -s 3 -d 7 -p cbr -e 210 -c 1 -i 27 -a 1 -x {3.1 7.0 0 ------- null}
h -t 0.1 -s 3 -d 7 -p cbr -e 210 -c 1 -i 27 -a 1 -x {3.1 7.0 -1 ------- null}
+ -t 0.10125 -s 1 -d 3 -p cbr -e 210 -c 1 -i 28 -a 1 -x {1.0 3.0 27 ------- null}
- -t 0.10125 -s 1 -d 3 -p cbr -e 210 -c 1 -i 28 -a 1 -x {1.0 3.0 27 ------- null}
h -t 0.10125 -s 1 -d 3 -p cbr -e 210 -c 1 -i 28 -a 1 -x {1.0 3.0 -1 ------- null}
r -t 0.10312 -s 3 -d 7 -p cbr -e 210 -c 1 -i 27 -a 1 -x {3.1 7.0 0 ------- null}
r -t 0.103586 -s 1 -d 3 -p cbr -e 210 -c 1 -i 28 -a 1 -x {1.0 3.0 27 ------- null}
+ -t 0.10375 -s 3 -d 7 -p cbr -e 210 -c 1 -i 29 -a 1 -x {3.1 7.0 1 ------- null}
- -t 0.10375 -s 3 -d 7 -p cbr -e 210 -c 1 -i 29 -a 1 -x {3.1 7.0 1 ------- null}
h -t 0.10375 -s 3 -d 7 -p cbr -e 210 -c 1 -i 29 -a 1 -x {3.1 7.0 -1 ------- null}
+ -t 0.105 -s 1 -d 3 -p cbr -e 210 -c 1 -i 30 -a 1 -x {1.0 3.0 28 ------- null}
- -t 0.105 -s 1 -d 3 -p cbr -e 210 -c 1 -i 30 -a 1 -x {1.0 3.0 28 ------- null}
h -t 0.105 -s 1 -d 3 -p cbr -e 210 -c 1 -i 30 -a 1 -x {1.0 3.0 -1 ------- null}
r -t 0.10687 -s 3 -d 7 -p cbr -e 210 -c 1 -i 29 -a 1 -x {3.1 7.0 1 ------- null}
r -t 0.107336 -s 1 -d 3 -p cbr -e 210 -c 1 -i 30 -a 1 -x {1.0 3.0 28 ------- null}
+ -t 0.1075 -s 3 -d 7 -p cbr -e 210 -c 1 -i 31 -a 1 -x {3.1 7.0 2 ------- null}
- -t 0.1075 -s 3 -d 7 -p cbr -e 210 -c 1 -i 31 -a 1 -x {3.1 7.0 2 ------- null}
h -t 0.1075 -s 3 -d 7 -p cbr -e 210 -c 1 -i 31 -a 1 -x {3.1 7.0 -1 ------- null}
+ -t 0.10875 -s 1 -d 3 -p cbr -e 210 -c 1 -i 32 -a 1 -x {1.0 3.0 29 ------- null}
- -t 0.10875 -s 1 -d 3 -p cbr -e 210 -c 1 -i 32 -a 1 -x {1.0 3.0 29 ------- null}
h -t 0.10875 -s 1 -d 3 -p cbr -e 210 -c 1 -i 32 -a 1 -x {1.0 3.0 -1 ------- null}
r -t 0.11062 -s 3 -d 7 -p cbr -e 210 -c 1 -i 31 -a 1 -x {3.1 7.0 2 ------- null}
r -t 0.111086 -s 1 -d 3 -p cbr -e 210 -c 1 -i 32 -a 1 -x {1.0 3.0 29 ------- null}
+ -t 0.11125 -s 3 -d 7 -p cbr -e 210 -c 1 -i 33 -a 1 -x {3.1 7.0 3 ------- null}
- -t 0.11125 -s 3 -d 7 -p cbr -e 210 -c 1 -i 33 -a 1 -x {3.1 7.0 3 ------- null}
h -t 0.11125 -s 3 -d 7 -p cbr -e 210 -c 1 -i 33 -a 1 -x {3.1 7.0 -1 ------- null}
+ -t 0.1125 -s 1 -d 3 -p cbr -e 210 -c 1 -i 34 -a 1 -x {1.0 3.0 30 ------- null}
- -t 0.1125 -s 1 -d 3 -p cbr -e 210 -c 1 -i 34 -a 1 -x {1.0 3.0 30 ------- null}
h -t 0.1125 -s 1 -d 3 -p cbr -e 210 -c 1 -i 34 -a 1 -x {1.0 3.0 -1 ------- null}
r -t 0.11437 -s 3 -d 7 -p cbr -e 210 -c 1 -i 33 -a 1 -x {3.1 7.0 3 ------- null}
r -t 0.114836 -s 1 -d 3 -p cbr -e 210 -c 1 -i 34 -a 1 -x {1.0 3.0 30 ------- null}
+ -t 0.115 -s 3 -d 7 -p cbr -e 210 -c 1 -i 35 -a 1 -x {3.1 7.0 4 ------- null}
- -t 0.115 -s 3 -d 7 -p cbr -e 210 -c 1 -i 35 -a 1 -x {3.1 7.0 4 ------- null}
h -t 0.115 -s 3 -d 7 -p cbr -e 210 -c 1 -i 35 -a 1 -x {3.1 7.0 -1 ------- null}
+ -t 0.11625 -s 1 -d 3 -p cbr -e 210 -c 1 -i 36 -a 1 -x {1.0 3.0 31 ------- null}
- -t 0.11625 -s 1 -d 3 -p cbr -e 210 -c 1 -i 36 -a 1 -x {1.0 3.0 31 ------- null}
h -t 0.11625 -s 1 -d 3 -p cbr -e 210 -c 1 -i 36 -a 1 -x {1.0 3.0 -1 ------- null}
r -t 0.11812 -s 3 -d 7 -p cbr -e 210 -c 1 -i 35 -a 1 -x {3.1 7.0 4 ------- null}
r -t 0.118586 -s 1 -d 3 -p cbr -e 210 -c 1 -i 36 -a 1 -x {1.0 3.0 31 ------- null}
+ -t 0.11875 -s 3 -d 7 -p cbr -e 210 -c 1 -i 37 -a 1 -x {3.1 7.0 5 ------- null}
- -t 0.11875 -s 3 -d 7 -p cbr -e 210 -c 1 -i 37 -a 1 -x {3.1 7.0 5 ------- null}
h -t 0.11875 -s 3 -d 7 -p cbr -e 210 -c 1 -i 37 -a 1 -x {3.1 7.0 -1 ------- null}
+ -t 0.12 -s 1 -d 3 -p cbr -e 210 -c 1 -i 38 -a 1 -x {1.0 3.0 32 ------- null}
- -t 0.12 -s 1 -d 3 -p cbr -e 210 -c 1 -i 38 -a 1 -x {1.0 3.0 32 ------- null}
h -t 0.12 -s 1 -d 3 -p cbr -e 210 -c 1 -i 38 -a 1 -x {1.0 3.0 -1 ------- null}
r -t 0.12187 -s 3 -d 7 -p cbr -e 210 -c 1 -i 37 -a 1 -x {3.1 7.0 5 ------- null}
r -t 0.122336 -s 1 -d 3 -p cbr -e 210 -c 1 -i 38 -a 1 -x {1.0 3.0 32 ------- null}
+ -t 0.1225 -s 3 -d 7 -p cbr -e 210 -c 1 -i 39 -a 1 -x {3.1 7.0 6 ------- null}
- -t 0.1225 -s 3 -d 7 -p cbr -e 210 -c 1 -i 39 -a 1 -x {3.1 7.0 6 ------- null}
h -t 0.1225 -s 3 -d 7 -p cbr -e 210 -c 1 -i 39 -a 1 -x {3.1 7.0 -1 ------- null}
+ -t 0.12375 -s 1 -d 3 -p cbr -e 210 -c 1 -i 40 -a 1 -x {1.0 3.0 33 ------- null}
- -t 0.12375 -s 1 -d 3 -p cbr -e 210 -c 1 -i 40 -a 1 -x {1.0 3.0 33 ------- null}
h -t 0.12375 -s 1 -d 3 -p cbr -e 210 -c 1 -i 40 -a 1 -x {1.0 3.0 -1 ------- null}
r -t 0.12562 -s 3 -d 7 -p cbr -e 210 -c 1 -i 39 -a 1 -x {3.1 7.0 6 ------- null}
r -t 0.126086 -s 1 -d 3 -p cbr -e 210 -c 1 -i 40 -a 1 -x {1.0 3.0 33 ------- null}
+ -t 0.12625 -s 3 -d 7 -p cbr -e 210 -c 1 -i 41 -a 1 -x {3.1 7.0 7 ------- null}
- -t 0.12625 -s 3 -d 7 -p cbr -e 210 -c 1 -i 41 -a 1 -x {3.1 7.0 7 ------- null}
h -t 0.12625 -s 3 -d 7 -p cbr -e 210 -c 1 -i 41 -a 1 -x {3.1 7.0 -1 ------- null}
+ -t 0.1275 -s 1 -d 3 -p cbr -e 210 -c 1 -i 42 -a 1 -x {1.0 3.0 34 ------- null}
- -t 0.1275 -s 1 -d 3 -p cbr -e 210 -c 1 -i 42 -a 1 -x {1.0 3.0 34 ------- null}
h -t 0.1275 -s 1 -d 3 -p cbr -e 210 -c 1 -i 42 -a 1 -x {1.0 3.0 -1 ------- null}
r -t 0.12937 -s 3 -d 7 -p cbr -e 210 -c 1 -i 41 -a 1 -x {3.1 7.0 7 ------- null}
r -t 0.129836 -s 1 -d 3 -p cbr -e 210 -c 1 -i 42 -a 1 -x {1.0 3.0 34 ------- null}
+ -t 0.13 -s 3 -d 7 -p cbr -e 210 -c 1 -i 43 -a 1 -x {3.1 7.0 8 ------- null}
- -t 0.13 -s 3 -d 7 -p cbr -e 210 -c 1 -i 43 -a 1 -x {3.1 7.0 8 ------- null}
h -t 0.13 -s 3 -d 7 -p cbr -e 210 -c 1 -i 43 -a 1 -x {3.1 7.0 -1 ------- null}
+ -t 0.13125 -s 1 -d 3 -p cbr -e 210 -c 1 -i 44 -a 1 -x {1.0 3.0 35 ------- null}
- -t 0.13125 -s 1 -d 3 -p cbr -e 210 -c 1 -i 44 -a 1 -x {1.0 3.0 35 ------- null}
h -t 0.13125 -s 1 -d 3 -p cbr -e 210 -c 1 -i 44 -a 1 -x {1.0 3.0 -1 ------- null}
r -t 0.13312 -s 3 -d 7 -p cbr -e 210 -c 1 -i 43 -a 1 -x {3.1 7.0 8 ------- null}
r -t 0.133586 -s 1 -d 3 -p cbr -e 210 -c 1 -i 44 -a 1 -x {1.0 3.0 35 ------- null}
+ -t 0.13375 -s 3 -d 7 -p cbr -e 210 -c 1 -i 45 -a 1 -x {3.1 7.0 9 ------- null}
- -t 0.13375 -s 3 -d 7 -p cbr -e 210 -c 1 -i 45 -a 1 -x {3.1 7.0 9 ------- null}
h -t 0.13375 -s 3 -d 7 -p cbr -e 210 -c 1 -i 45 -a 1 -x {3.1 7.0 -1 ------- null}
+ -t 0.135 -s 1 -d 3 -p cbr -e 210 -c 1 -i 46 -a 1 -x {1.0 3.0 36 ------- null}
- -t 0.135 -s 1 -d 3 -p cbr -e 210 -c 1 -i 46 -a 1 -x {1.0 3.0 36 ------- null}
h -t 0.135 -s 1 -d 3 -p cbr -e 210 -c 1 -i 46 -a 1 -x {1.0 3.0 -1 ------- null}
r -t 0.13687 -s 3 -d 7 -p cbr -e 210 -c 1 -i 45 -a 1 -x {3.1 7.0 9 ------- null}
r -t 0.137336 -s 1 -d 3 -p cbr -e 210 -c 1 -i 46 -a 1 -x {1.0 3.0 36 ------- null}
+ -t 0.1375 -s 3 -d 7 -p cbr -e 210 -c 1 -i 47 -a 1 -x {3.1 7.0 10 ------- null}
- -t 0.1375 -s 3 -d 7 -p cbr -e 210 -c 1 -i 47 -a 1 -x {3.1 7.0 10 ------- null}
h -t 0.1375 -s 3 -d 7 -p cbr -e 210 -c 1 -i 47 -a 1 -x {3.1 7.0 -1 ------- null}
+ -t 0.13875 -s 1 -d 3 -p cbr -e 210 -c 1 -i 48 -a 1 -x {1.0 3.0 37 ------- null}
- -t 0.13875 -s 1 -d 3 -p cbr -e 210 -c 1 -i 48 -a 1 -x {1.0 3.0 37 ------- null}
h -t 0.13875 -s 1 -d 3 -p cbr -e 210 -c 1 -i 48 -a 1 -x {1.0 3.0 -1 ------- null}
r -t 0.14062 -s 3 -d 7 -p cbr -e 210 -c 1 -i 47 -a 1 -x {3.1 7.0 10 ------- null}
r -t 0.141086 -s 1 -d 3 -p cbr -e 210 -c 1 -i 48 -a 1 -x {1.0 3.0 37 ------- null}
+ -t 0.14125 -s 3 -d 7 -p cbr -e 210 -c 1 -i 49 -a 1 -x {3.1 7.0 11 ------- null}
- -t 0.14125 -s 3 -d 7 -p cbr -e 210 -c 1 -i 49 -a 1 -x {3.1 7.0 11 ------- null}
h -t 0.14125 -s 3 -d 7 -p cbr -e 210 -c 1 -i 49 -a 1 -x {3.1 7.0 -1 ------- null}
+ -t 0.1425 -s 1 -d 3 -p cbr -e 210 -c 1 -i 50 -a 1 -x {1.0 3.0 38 ------- null}
- -t 0.1425 -s 1 -d 3 -p cbr -e 210 -c 1 -i 50 -a 1 -x {1.0 3.0 38 ------- null}
h -t 0.1425 -s 1 -d 3 -p cbr -e 210 -c 1 -i 50 -a 1 -x {1.0 3.0 -1 ------- null}
r -t 0.14437 -s 3 -d 7 -p cbr -e 210 -c 1 -i 49 -a 1 -x {3.1 7.0 11 ------- null}
r -t 0.144836 -s 1 -d 3 -p cbr -e 210 -c 1 -i 50 -a 1 -x {1.0 3.0 38 ------- null}
+ -t 0.145 -s 3 -d 7 -p cbr -e 210 -c 1 -i 51 -a 1 -x {3.1 7.0 12 ------- null}
- -t 0.145 -s 3 -d 7 -p cbr -e 210 -c 1 -i 51 -a 1 -x {3.1 7.0 12 ------- null}
h -t 0.145 -s 3 -d 7 -p cbr -e 210 -c 1 -i 51 -a 1 -x {3.1 7.0 -1 ------- null}
+ -t 0.14625 -s 1 -d 3 -p cbr -e 210 -c 1 -i 52 -a 1 -x {1.0 3.0 39 ------- null}
- -t 0.14625 -s 1 -d 3 -p cbr -e 210 -c 1 -i 52 -a 1 -x {1.0 3.0 39 ------- null}
h -t 0.14625 -s 1 -d 3 -p cbr -e 210 -c 1 -i 52 -a 1 -x {1.0 3.0 -1 ------- null}
r -t 0.14812 -s 3 -d 7 -p cbr -e 210 -c 1 -i 51 -a 1 -x {3.1 7.0 12 ------- null}
r -t 0.148586 -s 1 -d 3 -p cbr -e 210 -c 1 -i 52 -a 1 -x {1.0 3.0 39 ------- null}
+ -t 0.14875 -s 3 -d 7 -p cbr -e 210 -c 1 -i 53 -a 1 -x {3.1 7.0 13 ------- null}
- -t 0.14875 -s 3 -d 7 -p cbr -e 210 -c 1 -i 53 -a 1 -x {3.1 7.0 13 ------- null}
h -t 0.14875 -s 3 -d 7 -p cbr -e 210 -c 1 -i 53 -a 1 -x {3.1 7.0 -1 ------- null}
+ -t 0.15 -s 1 -d 3 -p cbr -e 210 -c 1 -i 54 -a 1 -x {1.0 3.0 40 ------- null}
- -t 0.15 -s 1 -d 3 -p cbr -e 210 -c 1 -i 54 -a 1 -x {1.0 3.0 40 ------- null}
h -t 0.15 -s 1 -d 3 -p cbr -e 210 -c 1 -i 54 -a 1 -x {1.0 3.0 -1 ------- null}
r -t 0.15187 -s 3 -d 7 -p cbr -e 210 -c 1 -i 53 -a 1 -x {3.1 7.0 13 ------- null}
r -t 0.152336 -s 1 -d 3 -p cbr -e 210 -c 1 -i 54 -a 1 -x {1.0 3.0 40 ------- null}
+ -t 0.1525 -s 3 -d 7 -p cbr -e 210 -c 1 -i 55 -a 1 -x {3.1 7.0 14 ------- null}
- -t 0.1525 -s 3 -d 7 -p cbr -e 210 -c 1 -i 55 -a 1 -x {3.1 7.0 14 ------- null}
h -t 0.1525 -s 3 -d 7 -p cbr -e 210 -c 1 -i 55 -a 1 -x {3.1 7.0 -1 ------- null}
+ -t 0.15375 -s 1 -d 3 -p cbr -e 210 -c 1 -i 56 -a 1 -x {1.0 3.0 41 ------- null}
- -t 0.15375 -s 1 -d 3 -p cbr -e 210 -c 1 -i 56 -a 1 -x {1.0 3.0 41 ------- null}
h -t 0.15375 -s 1 -d 3 -p cbr -e 210 -c 1 -i 56 -a 1 -x {1.0 3.0 -1 ------- null}
r -t 0.15562 -s 3 -d 7 -p cbr -e 210 -c 1 -i 55 -a 1 -x {3.1 7.0 14 ------- null}
r -t 0.156086 -s 1 -d 3 -p cbr -e 210 -c 1 -i 56 -a 1 -x {1.0 3.0 41 ------- null}
+ -t 0.15625 -s 3 -d 7 -p cbr -e 210 -c 1 -i 57 -a 1 -x {3.1 7.0 15 ------- null}
- -t 0.15625 -s 3 -d 7 -p cbr -e 210 -c 1 -i 57 -a 1 -x {3.1 7.0 15 ------- null}
h -t 0.15625 -s 3 -d 7 -p cbr -e 210 -c 1 -i 57 -a 1 -x {3.1 7.0 -1 ------- null}
+ -t 0.1575 -s 1 -d 3 -p cbr -e 210 -c 1 -i 58 -a 1 -x {1.0 3.0 42 ------- null}
- -t 0.1575 -s 1 -d 3 -p cbr -e 210 -c 1 -i 58 -a 1 -x {1.0 3.0 42 ------- null}
h -t 0.1575 -s 1 -d 3 -p cbr -e 210 -c 1 -i 58 -a 1 -x {1.0 3.0 -1 ------- null}
r -t 0.15937 -s 3 -d 7 -p cbr -e 210 -c 1 -i 57 -a 1 -x {3.1 7.0 15 ------- null}
r -t 0.159836 -s 1 -d 3 -p cbr -e 210 -c 1 -i 58 -a 1 -x {1.0 3.0 42 ------- null}
+ -t 0.16 -s 3 -d 7 -p cbr -e 210 -c 1 -i 59 -a 1 -x {3.1 7.0 16 ------- null}
- -t 0.16 -s 3 -d 7 -p cbr -e 210 -c 1 -i 59 -a 1 -x {3.1 7.0 16 ------- null}
h -t 0.16 -s 3 -d 7 -p cbr -e 210 -c 1 -i 59 -a 1 -x {3.1 7.0 -1 ------- null}
+ -t 0.16125 -s 1 -d 3 -p cbr -e 210 -c 1 -i 60 -a 1 -x {1.0 3.0 43 ------- null}
- -t 0.16125 -s 1 -d 3 -p cbr -e 210 -c 1 -i 60 -a 1 -x {1.0 3.0 43 ------- null}
h -t 0.16125 -s 1 -d 3 -p cbr -e 210 -c 1 -i 60 -a 1 -x {1.0 3.0 -1 ------- null}
r -t 0.16312 -s 3 -d 7 -p cbr -e 210 -c 1 -i 59 -a 1 -x {3.1 7.0 16 ------- null}
r -t 0.163586 -s 1 -d 3 -p cbr -e 210 -c 1 -i 60 -a 1 -x {1.0 3.0 43 ------- null}
+ -t 0.16375 -s 3 -d 7 -p cbr -e 210 -c 1 -i 61 -a 1 -x {3.1 7.0 17 ------- null}
- -t 0.16375 -s 3 -d 7 -p cbr -e 210 -c 1 -i 61 -a 1 -x {3.1 7.0 17 ------- null}
h -t 0.16375 -s 3 -d 7 -p cbr -e 210 -c 1 -i 61 -a 1 -x {3.1 7.0 -1 ------- null}
+ -t 0.165 -s 1 -d 3 -p cbr -e 210 -c 1 -i 62 -a 1 -x {1.0 3.0 44 ------- null}
- -t 0.165 -s 1 -d 3 -p cbr -e 210 -c 1 -i 62 -a 1 -x {1.0 3.0 44 ------- null}
h -t 0.165 -s 1 -d 3 -p cbr -e 210 -c 1 -i 62 -a 1 -x {1.0 3.0 -1 ------- null}
r -t 0.16687 -s 3 -d 7 -p cbr -e 210 -c 1 -i 61 -a 1 -x {3.1 7.0 17 ------- null}
r -t 0.167336 -s 1 -d 3 -p cbr -e 210 -c 1 -i 62 -a 1 -x {1.0 3.0 44 ------- null}
+ -t 0.1675 -s 3 -d 7 -p cbr -e 210 -c 1 -i 63 -a 1 -x {3.1 7.0 18 ------- null}
- -t 0.1675 -s 3 -d 7 -p cbr -e 210 -c 1 -i 63 -a 1 -x {3.1 7.0 18 ------- null}
h -t 0.1675 -s 3 -d 7 -p cbr -e 210 -c 1 -i 63 -a 1 -x {3.1 7.0 -1 ------- null}
+ -t 0.16875 -s 1 -d 3 -p cbr -e 210 -c 1 -i 64 -a 1 -x {1.0 3.0 45 ------- null}
- -t 0.16875 -s 1 -d 3 -p cbr -e 210 -c 1 -i 64 -a 1 -x {1.0 3.0 45 ------- null}
h -t 0.16875 -s 1 -d 3 -p cbr -e 210 -c 1 -i 64 -a 1 -x {1.0 3.0 -1 ------- null}
r -t 0.17062 -s 3 -d 7 -p cbr -e 210 -c 1 -i 63 -a 1 -x {3.1 7.0 18 ------- null}
r -t 0.171086 -s 1 -d 3 -p cbr -e 210 -c 1 -i 64 -a 1 -x {1.0 3.0 45 ------- null}
+ -t 0.17125 -s 3 -d 7 -p cbr -e 210 -c 1 -i 65 -a 1 -x {3.1 7.0 19 ------- null}
- -t 0.17125 -s 3 -d 7 -p cbr -e 210 -c 1 -i 65 -a 1 -x {3.1 7.0 19 ------- null}
h -t 0.17125 -s 3 -d 7 -p cbr -e 210 -c 1 -i 65 -a 1 -x {3.1 7.0 -1 ------- null}
+ -t 0.1725 -s 1 -d 3 -p cbr -e 210 -c 1 -i 66 -a 1 -x {1.0 3.0 46 ------- null}
- -t 0.1725 -s 1 -d 3 -p cbr -e 210 -c 1 -i 66 -a 1 -x {1.0 3.0 46 ------- null}
h -t 0.1725 -s 1 -d 3 -p cbr -e 210 -c 1 -i 66 -a 1 -x {1.0 3.0 -1 ------- null}
r -t 0.17437 -s 3 -d 7 -p cbr -e 210 -c 1 -i 65 -a 1 -x {3.1 7.0 19 ------- null}
r -t 0.174836 -s 1 -d 3 -p cbr -e 210 -c 1 -i 66 -a 1 -x {1.0 3.0 46 ------- null}
+ -t 0.175 -s 3 -d 7 -p cbr -e 210 -c 1 -i 67 -a 1 -x {3.1 7.0 20 ------- null}
- -t 0.175 -s 3 -d 7 -p cbr -e 210 -c 1 -i 67 -a 1 -x {3.1 7.0 20 ------- null}
h -t 0.175 -s 3 -d 7 -p cbr -e 210 -c 1 -i 67 -a 1 -x {3.1 7.0 -1 ------- null}
+ -t 0.17625 -s 1 -d 3 -p cbr -e 210 -c 1 -i 68 -a 1 -x {1.0 3.0 47 ------- null}
- -t 0.17625 -s 1 -d 3 -p cbr -e 210 -c 1 -i 68 -a 1 -x {1.0 3.0 47 ------- null}
h -t 0.17625 -s 1 -d 3 -p cbr -e 210 -c 1 -i 68 -a 1 -x {1.0 3.0 -1 ------- null}
r -t 0.17812 -s 3 -d 7 -p cbr -e 210 -c 1 -i 67 -a 1 -x {3.1 7.0 20 ------- null}
r -t 0.178586 -s 1 -d 3 -p cbr -e 210 -c 1 -i 68 -a 1 -x {1.0 3.0 47 ------- null}
+ -t 0.17875 -s 3 -d 7 -p cbr -e 210 -c 1 -i 69 -a 1 -x {3.1 7.0 21 ------- null}
- -t 0.17875 -s 3 -d 7 -p cbr -e 210 -c 1 -i 69 -a 1 -x {3.1 7.0 21 ------- null}
h -t 0.17875 -s 3 -d 7 -p cbr -e 210 -c 1 -i 69 -a 1 -x {3.1 7.0 -1 ------- null}
+ -t 0.18 -s 1 -d 3 -p cbr -e 210 -c 1 -i 70 -a 1 -x {1.0 3.0 48 ------- null}
- -t 0.18 -s 1 -d 3 -p cbr -e 210 -c 1 -i 70 -a 1 -x {1.0 3.0 48 ------- null}
h -t 0.18 -s 1 -d 3 -p cbr -e 210 -c 1 -i 70 -a 1 -x {1.0 3.0 -1 ------- null}
r -t 0.18187 -s 3 -d 7 -p cbr -e 210 -c 1 -i 69 -a 1 -x {3.1 7.0 21 ------- null}
r -t 0.182336 -s 1 -d 3 -p cbr -e 210 -c 1 -i 70 -a 1 -x {1.0 3.0 48 ------- null}
+ -t 0.1825 -s 3 -d 7 -p cbr -e 210 -c 1 -i 71 -a 1 -x {3.1 7.0 22 ------- null}
- -t 0.1825 -s 3 -d 7 -p cbr -e 210 -c 1 -i 71 -a 1 -x {3.1 7.0 22 ------- null}
h -t 0.1825 -s 3 -d 7 -p cbr -e 210 -c 1 -i 71 -a 1 -x {3.1 7.0 -1 ------- null}
+ -t 0.18375 -s 1 -d 3 -p cbr -e 210 -c 1 -i 72 -a 1 -x {1.0 3.0 49 ------- null}
- -t 0.18375 -s 1 -d 3 -p cbr -e 210 -c 1 -i 72 -a 1 -x {1.0 3.0 49 ------- null}
h -t 0.18375 -s 1 -d 3 -p cbr -e 210 -c 1 -i 72 -a 1 -x {1.0 3.0 -1 ------- null}
r -t 0.18562 -s 3 -d 7 -p cbr -e 210 -c 1 -i 71 -a 1 -x {3.1 7.0 22 ------- null}
r -t 0.186086 -s 1 -d 3 -p cbr -e 210 -c 1 -i 72 -a 1 -x {1.0 3.0 49 ------- null}
+ -t 0.18625 -s 3 -d 7 -p cbr -e 210 -c 1 -i 73 -a 1 -x {3.1 7.0 23 ------- null}
- -t 0.18625 -s 3 -d 7 -p cbr -e 210 -c 1 -i 73 -a 1 -x {3.1 7.0 23 ------- null}
h -t 0.18625 -s 3 -d 7 -p cbr -e 210 -c 1 -i 73 -a 1 -x {3.1 7.0 -1 ------- null}
+ -t 0.1875 -s 1 -d 3 -p cbr -e 210 -c 1 -i 74 -a 1 -x {1.0 3.0 50 ------- null}
- -t 0.1875 -s 1 -d 3 -p cbr -e 210 -c 1 -i 74 -a 1 -x {1.0 3.0 50 ------- null}
h -t 0.1875 -s 1 -d 3 -p cbr -e 210 -c 1 -i 74 -a 1 -x {1.0 3.0 -1 ------- null}
r -t 0.18937 -s 3 -d 7 -p cbr -e 210 -c 1 -i 73 -a 1 -x {3.1 7.0 23 ------- null}
r -t 0.189836 -s 1 -d 3 -p cbr -e 210 -c 1 -i 74 -a 1 -x {1.0 3.0 50 ------- null}
+ -t 0.19 -s 3 -d 7 -p cbr -e 210 -c 1 -i 75 -a 1 -x {3.1 7.0 24 ------- null}
- -t 0.19 -s 3 -d 7 -p cbr -e 210 -c 1 -i 75 -a 1 -x {3.1 7.0 24 ------- null}
h -t 0.19 -s 3 -d 7 -p cbr -e 210 -c 1 -i 75 -a 1 -x {3.1 7.0 -1 ------- null}
+ -t 0.19125 -s 1 -d 3 -p cbr -e 210 -c 1 -i 76 -a 1 -x {1.0 3.0 51 ------- null}
- -t 0.19125 -s 1 -d 3 -p cbr -e 210 -c 1 -i 76 -a 1 -x {1.0 3.0 51 ------- null}
h -t 0.19125 -s 1 -d 3 -p cbr -e 210 -c 1 -i 76 -a 1 -x {1.0 3.0 -1 ------- null}
r -t 0.19312 -s 3 -d 7 -p cbr -e 210 -c 1 -i 75 -a 1 -x {3.1 7.0 24 ------- null}
r -t 0.193586 -s 1 -d 3 -p cbr -e 210 -c 1 -i 76 -a 1 -x {1.0 3.0 51 ------- null}
+ -t 0.19375 -s 3 -d 7 -p cbr -e 210 -c 1 -i 77 -a 1 -x {3.1 7.0 25 ------- null}
- -t 0.19375 -s 3 -d 7 -p cbr -e 210 -c 1 -i 77 -a 1 -x {3.1 7.0 25 ------- null}
h -t 0.19375 -s 3 -d 7 -p cbr -e 210 -c 1 -i 77 -a 1 -x {3.1 7.0 -1 ------- null}
+ -t 0.195 -s 1 -d 3 -p cbr -e 210 -c 1 -i 78 -a 1 -x {1.0 3.0 52 ------- null}
- -t 0.195 -s 1 -d 3 -p cbr -e 210 -c 1 -i 78 -a 1 -x {1.0 3.0 52 ------- null}
h -t 0.195 -s 1 -d 3 -p cbr -e 210 -c 1 -i 78 -a 1 -x {1.0 3.0 -1 ------- null}
r -t 0.19687 -s 3 -d 7 -p cbr -e 210 -c 1 -i 77 -a 1 -x {3.1 7.0 25 ------- null}
r -t 0.197336 -s 1 -d 3 -p cbr -e 210 -c 1 -i 78 -a 1 -x {1.0 3.0 52 ------- null}
+ -t 0.1975 -s 3 -d 7 -p cbr -e 210 -c 1 -i 79 -a 1 -x {3.1 7.0 26 ------- null}
- -t 0.1975 -s 3 -d 7 -p cbr -e 210 -c 1 -i 79 -a 1 -x {3.1 7.0 26 ------- null}
h -t 0.1975 -s 3 -d 7 -p cbr -e 210 -c 1 -i 79 -a 1 -x {3.1 7.0 -1 ------- null}
+ -t 0.19875 -s 1 -d 3 -p cbr -e 210 -c 1 -i 80 -a 1 -x {1.0 3.0 53 ------- null}
- -t 0.19875 -s 1 -d 3 -p cbr -e 210 -c 1 -i 80 -a 1 -x {1.0 3.0 53 ------- null}
h -t 0.19875 -s 1 -d 3 -p cbr -e 210 -c 1 -i 80 -a 1 -x {1.0 3.0 -1 ------- null}
+ -t 0.2 -s 7 -d 8 -p cbr -e 210 -c 1 -i 81 -a 1 -x {7.1 8.0 0 ------- null}
- -t 0.2 -s 7 -d 8 -p cbr -e 210 -c 1 -i 81 -a 1 -x {7.1 8.0 0 ------- null}
h -t 0.2 -s 7 -d 8 -p cbr -e 210 -c 1 -i 81 -a 1 -x {7.1 8.0 -1 ------- null}
r -t 0.20062 -s 3 -d 7 -p cbr -e 210 -c 1 -i 79 -a 1 -x {3.1 7.0 26 ------- null}
r -t 0.201086 -s 1 -d 3 -p cbr -e 210 -c 1 -i 80 -a 1 -x {1.0 3.0 53 ------- null}
+ -t 0.20125 -s 3 -d 7 -p cbr -e 210 -c 1 -i 82 -a 1 -x {3.1 7.0 27 ------- null}
- -t 0.20125 -s 3 -d 7 -p cbr -e 210 -c 1 -i 82 -a 1 -x {3.1 7.0 27 ------- null}
h -t 0.20125 -s 3 -d 7 -p cbr -e 210 -c 1 -i 82 -a 1 -x {3.1 7.0 -1 ------- null}
r -t 0.202336 -s 7 -d 8 -p cbr -e 210 -c 1 -i 81 -a 1 -x {7.1 8.0 0 ------- null}
+ -t 0.2025 -s 1 -d 3 -p cbr -e 210 -c 1 -i 83 -a 1 -x {1.0 3.0 54 ------- null}
- -t 0.2025 -s 1 -d 3 -p cbr -e 210 -c 1 -i 83 -a 1 -x {1.0 3.0 54 ------- null}
h -t 0.2025 -s 1 -d 3 -p cbr -e 210 -c 1 -i 83 -a 1 -x {1.0 3.0 -1 ------- null}
+ -t 0.20375 -s 7 -d 8 -p cbr -e 210 -c 1 -i 84 -a 1 -x {7.1 8.0 1 ------- null}
- -t 0.20375 -s 7 -d 8 -p cbr -e 210 -c 1 -i 84 -a 1 -x {7.1 8.0 1 ------- null}
h -t 0.20375 -s 7 -d 8 -p cbr -e 210 -c 1 -i 84 -a 1 -x {7.1 8.0 -1 ------- null}
r -t 0.20437 -s 3 -d 7 -p cbr -e 210 -c 1 -i 82 -a 1 -x {3.1 7.0 27 ------- null}
r -t 0.204836 -s 1 -d 3 -p cbr -e 210 -c 1 -i 83 -a 1 -x {1.0 3.0 54 ------- null}
+ -t 0.205 -s 3 -d 7 -p cbr -e 210 -c 1 -i 85 -a 1 -x {3.1 7.0 28 ------- null}
- -t 0.205 -s 3 -d 7 -p cbr -e 210 -c 1 -i 85 -a 1 -x {3.1 7.0 28 ------- null}
h -t 0.205 -s 3 -d 7 -p cbr -e 210 -c 1 -i 85 -a 1 -x {3.1 7.0 -1 ------- null}
r -t 0.206086 -s 7 -d 8 -p cbr -e 210 -c 1 -i 84 -a 1 -x {7.1 8.0 1 ------- null}
+ -t 0.20625 -s 1 -d 3 -p cbr -e 210 -c 1 -i 86 -a 1 -x {1.0 3.0 55 ------- null}
- -t 0.20625 -s 1 -d 3 -p cbr -e 210 -c 1 -i 86 -a 1 -x {1.0 3.0 55 ------- null}
h -t 0.20625 -s 1 -d 3 -p cbr -e 210 -c 1 -i 86 -a 1 -x {1.0 3.0 -1 ------- null}
+ -t 0.2075 -s 7 -d 8 -p cbr -e 210 -c 1 -i 87 -a 1 -x {7.1 8.0 2 ------- null}
- -t 0.2075 -s 7 -d 8 -p cbr -e 210 -c 1 -i 87 -a 1 -x {7.1 8.0 2 ------- null}
h -t 0.2075 -s 7 -d 8 -p cbr -e 210 -c 1 -i 87 -a 1 -x {7.1 8.0 -1 ------- null}
r -t 0.20812 -s 3 -d 7 -p cbr -e 210 -c 1 -i 85 -a 1 -x {3.1 7.0 28 ------- null}
r -t 0.208586 -s 1 -d 3 -p cbr -e 210 -c 1 -i 86 -a 1 -x {1.0 3.0 55 ------- null}
+ -t 0.20875 -s 3 -d 7 -p cbr -e 210 -c 1 -i 88 -a 1 -x {3.1 7.0 29 ------- null}