+ 0 1 3 cbr 210 ------- 1 1.0 3.0 0 0
- 0 1 3 cbr 210 ------- 1 1.0 3.0 0 0
r 0.002336 1 3 cbr 210 ------- 1 1.0 3.0 0 0
+ 0.00375 1 3 cbr 210 ------- 1 1.0 3.0 1 1
- 0.00375 1 3 cbr 210 ------- 1 1.0 3.0 1 1
r 0.006086 1 3 cbr 210 ------- 1 1.0 3.0 1 1
+ 0.0075 1 3 cbr 210 ------- 1 1.0 3.0 2 2
- 0.0075 1 3 cbr 210 ------- 1 1.0 3.0 2 2
r 0.009836 1 3 cbr 210 ------- 1 1.0 3.0 2 2
+ 0.01125 1 3 cbr 210 ------- 1 1.0 3.0 3 3
- 0.01125 1 3 cbr 210 ------- 1 1.0 3.0 3 3
r 0.013586 1 3 cbr 210 ------- 1 1.0 3.0 3 3
+ 0.015 1 3 cbr 210 ------- 1 1.0 3.0 4 4
- 0.015 1 3 cbr 210 ------- 1 1.0 3.0 4 4
r 0.017336 1 3 cbr 210 ------- 1 1.0 3.0 4 4
+ 0.01875 1 3 cbr 210 ------- 1 1.0 3.0 5 5
- 0.01875 1 3 cbr 210 ------- 1 1.0 3.0 5 5
r 0.021086 1 3 cbr 210 ------- 1 1.0 3.0 5 5
+ 0.0225 1 3 cbr 210 ------- 1 1.0 3.0 6 6
- 0.0225 1 3 cbr 210 ------- 1 1.0 3.0 6 6
r 0.024836 1 3 cbr 210 ------- 1 1.0 3.0 6 6
+ 0.02625 1 3 cbr 210 ------- 1 1.0 3.0 7 7
- 0.02625 1 3 cbr 210 ------- 1 1.0 3.0 7 7
r 0.028586 1 3 cbr 210 ------- 1 1.0 3.0 7 7
+ 0.03 1 3 cbr 210 ------- 1 1.0 3.0 8 8
- 0.03 1 3 cbr 210 ------- 1 1.0 3.0 8 8
r 0.032336 1 3 cbr 210 ------- 1 1.0 3.0 8 8
+ 0.03375 1 3 cbr 210 ------- 1 1.0 3.0 9 9
- 0.03375 1 3 cbr 210 ------- 1 1.0 3.0 9 9
r 0.036086 1 3 cbr 210 ------- 1 1.0 3.0 9 9
+ 0.0375 1 3 cbr 210 ------- 1 1.0 3.0 10 10
- 0.0375 1 3 cbr 210 ------- 1 1.0 3.0 10 10
r 0.039836 1 3 cbr 210 ------- 1 1.0 3.0 10 10
+ 0.04125 1 3 cbr 210 ------- 1 1.0 3.0 11 11
- 0.04125 1 3 cbr 210 ------- 1 1.0 3.0 11 11
r 0.043586 1 3 cbr 210 ------- 1 1.0 3.0 11 11
+ 0.045 1 3 cbr 210 ------- 1 1.0 3.0 12 12
- 0.045 1 3 cbr 210 ------- 1 1.0 3.0 12 12
r 0.047336 1 3 cbr 210 ------- 1 1.0 3.0 12 12
+ 0.04875 1 3 cbr 210 ------- 1 1.0 3.0 13 13
- 0.04875 1 3 cbr 210 ------- 1 1.0 3.0 13 13
r 0.051086 1 3 cbr 210 ------- 1 1.0 3.0 13 13
+ 0.0525 1 3 cbr 210 ------- 1 1.0 3.0 14 14
- 0.0525 1 3 cbr 210 ------- 1 1.0 3.0 14 14
r 0.054836 1 3 cbr 210 ------- 1 1.0 3.0 14 14
+ 0.05625 1 3 cbr 210 ------- 1 1.0 3.0 15 15
- 0.05625 1 3 cbr 210 ------- 1 1.0 3.0 15 15
r 0.058586 1 3 cbr 210 ------- 1 1.0 3.0 15 15
+ 0.06 1 3 cbr 210 ------- 1 1.0 3.0 16 16
- 0.06 1 3 cbr 210 ------- 1 1.0 3.0 16 16
r 0.062336 1 3 cbr 210 ------- 1 1.0 3.0 16 16
+ 0.06375 1 3 cbr 210 ------- 1 1.0 3.0 17 17
- 0.06375 1 3 cbr 210 ------- 1 1.0 3.0 17 17
r 0.066086 1 3 cbr 210 ------- 1 1.0 3.0 17 17
+ 0.0675 1 3 cbr 210 ------- 1 1.0 3.0 18 18
- 0.0675 1 3 cbr 210 ------- 1 1.0 3.0 18 18
r 0.069836 1 3 cbr 210 ------- 1 1.0 3.0 18 18
+ 0.07125 1 3 cbr 210 ------- 1 1.0 3.0 19 19
- 0.07125 1 3 cbr 210 ------- 1 1.0 3.0 19 19
r 0.073586 1 3 cbr 210 ------- 1 1.0 3.0 19 19
+ 0.075 1 3 cbr 210 ------- 1 1.0 3.0 20 20
- 0.075 1 3 cbr 210 ------- 1 1.0 3.0 20 20
r 0.077336 1 3 cbr 210 ------- 1 1.0 3.0 20 20
+ 0.07875 1 3 cbr 210 ------- 1 1.0 3.0 21 21
- 0.07875 1 3 cbr 210 ------- 1 1.0 3.0 21 21
r 0.081086 1 3 cbr 210 ------- 1 1.0 3.0 21 21
+ 0.0825 1 3 cbr 210 ------- 1 1.0 3.0 22 22
- 0.0825 1 3 cbr 210 ------- 1 1.0 3.0 22 22
r 0.084836 1 3 cbr 210 ------- 1 1.0 3.0 22 22
+ 0.08625 1 3 cbr 210 ------- 1 1.0 3.0 23 23
- 0.08625 1 3 cbr 210 ------- 1 1.0 3.0 23 23
r 0.088586 1 3 cbr 210 ------- 1 1.0 3.0 23 23
+ 0.09 1 3 cbr 210 ------- 1 1.0 3.0 24 24
- 0.09 1 3 cbr 210 ------- 1 1.0 3.0 24 24
r 0.092336 1 3 cbr 210 ------- 1 1.0 3.0 24 24
+ 0.09375 1 3 cbr 210 ------- 1 1.0 3.0 25 25
- 0.09375 1 3 cbr 210 ------- 1 1.0 3.0 25 25
r 0.096086 1 3 cbr 210 ------- 1 1.0 3.0 25 25
+ 0.0975 1 3 cbr 210 ------- 1 1.0 3.0 26 26
- 0.0975 1 3 cbr 210 ------- 1 1.0 3.0 26 26
r 0.099836 1 3 cbr 210 ------- 1 1.0 3.0 26 26
+ 0.1 3 7 cbr 210 ------- 1 3.1 7.0 0 27
- 0.1 3 7 cbr 210 ------- 1 3.1 7.0 0 27
+ 0.10125 1 3 cbr 210 ------- 1 1.0 3.0 27 28
- 0.10125 1 3 cbr 210 ------- 1 1.0 3.0 27 28
r 0.10312 3 7 cbr 210 ------- 1 3.1 7.0 0 27
r 0.103586 1 3 cbr 210 ------- 1 1.0 3.0 27 28
+ 0.10375 3 7 cbr 210 ------- 1 3.1 7.0 1 29
- 0.10375 3 7 cbr 210 ------- 1 3.1 7.0 1 29
+ 0.105 1 3 cbr 210 ------- 1 1.0 3.0 28 30
- 0.105 1 3 cbr 210 ------- 1 1.0 3.0 28 30
r 0.10687 3 7 cbr 210 ------- 1 3.1 7.0 1 29
r 0.107336 1 3 cbr 210 ------- 1 1.0 3.0 28 30
+ 0.1075 3 7 cbr 210 ------- 1 3.1 7.0 2 31
- 0.1075 3 7 cbr 210 ------- 1 3.1 7.0 2 31
+ 0.10875 1 3 cbr 210 ------- 1 1.0 3.0 29 32
- 0.10875 1 3 cbr 210 ------- 1 1.0 3.0 29 32
r 0.11062 3 7 cbr 210 ------- 1 3.1 7.0 2 31
r 0.111086 1 3 cbr 210 ------- 1 1.0 3.0 29 32
+ 0.11125 3 7 cbr 210 ------- 1 3.1 7.0 3 33
- 0.11125 3 7 cbr 210 ------- 1 3.1 7.0 3 33
+ 0.1125 1 3 cbr 210 ------- 1 1.0 3.0 30 34
- 0.1125 1 3 cbr 210 ------- 1 1.0 3.0 30 34
r 0.11437 3 7 cbr 210 ------- 1 3.1 7.0 3 33
r 0.114836 1 3 cbr 210 ------- 1 1.0 3.0 30 34
+ 0.115 3 7 cbr 210 ------- 1 3.1 7.0 4 35
- 0.115 3 7 cbr 210 ------- 1 3.1 7.0 4 35
+ 0.11625 1 3 cbr 210 ------- 1 1.0 3.0 31 36
- 0.11625 1 3 cbr 210 ------- 1 1.0 3.0 31 36
r 0.11812 3 7 cbr 210 ------- 1 3.1 7.0 4 35
r 0.118586 1 3 cbr 210 ------- 1 1.0 3.0 31 36
+ 0.11875 3 7 cbr 210 ------- 1 3.1 7.0 5 37
- 0.11875 3 7 cbr 210 ------- 1 3.1 7.0 5 37
+ 0.12 1 3 cbr 210 ------- 1 1.0 3.0 32 38
- 0.12 1 3 cbr 210 ------- 1 1.0 3.0 32 38
r 0.12187 3 7 cbr 210 ------- 1 3.1 7.0 5 37
r 0.122336 1 3 cbr 210 ------- 1 1.0 3.0 32 38
+ 0.1225 3 7 cbr 210 ------- 1 3.1 7.0 6 39
- 0.1225 3 7 cbr 210 ------- 1 3.1 7.0 6 39
+ 0.12375 1 3 cbr 210 ------- 1 1.0 3.0 33 40
- 0.12375 1 3 cbr 210 ------- 1 1.0 3.0 33 40
r 0.12562 3 7 cbr 210 ------- 1 3.1 7.0 6 39
r 0.126086 1 3 cbr 210 ------- 1 1.0 3.0 33 40
+ 0.12625 3 7 cbr 210 ------- 1 3.1 7.0 7 41
- 0.12625 3 7 cbr 210 ------- 1 3.1 7.0 7 41
+ 0.1275 1 3 cbr 210 ------- 1 1.0 3.0 34 42
- 0.1275 1 3 cbr 210 ------- 1 1.0 3.0 34 42
r 0.12937 3 7 cbr 210 ------- 1 3.1 7.0 7 41
r 0.129836 1 3 cbr 210 ------- 1 1.0 3.0 34 42
+ 0.13 3 7 cbr 210 ------- 1 3.1 7.0 8 43
- 0.13 3 7 cbr 210 ------- 1 3.1 7.0 8 43
+ 0.13125 1 3 cbr 210 ------- 1 1.0 3.0 35 44
- 0.13125 1 3 cbr 210 ------- 1 1.0 3.0 35 44
r 0.13312 3 7 cbr 210 ------- 1 3.1 7.0 8 43
r 0.133586 1 3 cbr 210 ------- 1 1.0 3.0 35 44
+ 0.13375 3 7 cbr 210 ------- 1 3.1 7.0 9 45
- 0.13375 3 7 cbr 210 ------- 1 3.1 7.0 9 45
+ 0.135 1 3 cbr 210 ------- 1 1.0 3.0 36 46
- 0.135 1 3 cbr 210 ------- 1 1.0 3.0 36 46
r 0.13687 3 7 cbr 210 ------- 1 3.1 7.0 9 45
r 0.137336 1 3 cbr 210 ------- 1 1.0 3.0 36 46
+ 0.1375 3 7 cbr 210 ------- 1 3.1 7.0 10 47
- 0.1375 3 7 cbr 210 ------- 1 3.1 7.0 10 47
+ 0.13875 1 3 cbr 210 ------- 1 1.0 3.0 37 48
- 0.13875 1 3 cbr 210 ------- 1 1.0 3.0 37 48
r 0.14062 3 7 cbr 210 ------- 1 3.1 7.0 10 47
r 0.141086 1 3 cbr 210 ------- 1 1.0 3.0 37 48
+ 0.14125 3 7 cbr 210 ------- 1 3.1 7.0 11 49
- 0.14125 3 7 cbr 210 ------- 1 3.1 7.0 11 49
+ 0.1425 1 3 cbr 210 ------- 1 1.0 3.0 38 50
- 0.1425 1 3 cbr 210 ------- 1 1.0 3.0 38 50
r 0.14437 3 7 cbr 210 ------- 1 3.1 7.0 11 49
r 0.144836 1 3 cbr 210 ------- 1 1.0 3.0 38 50
+ 0.145 3 7 cbr 210 ------- 1 3.1 7.0 12 51
- 0.145 3 7 cbr 210 ------- 1 3.1 7.0 12 51
+ 0.14625 1 3 cbr 210 ------- 1 1.0 3.0 39 52
- 0.14625 1 3 cbr 210 ------- 1 1.0 3.0 39 52
r 0.14812 3 7 cbr 210 ------- 1 3.1 7.0 12 51
r 0.148586 1 3 cbr 210 ------- 1 1.0 3.0 39 52
+ 0.14875 3 7 cbr 210 ------- 1 3.1 7.0 13 53
- 0.14875 3 7 cbr 210 ------- 1 3.1 7.0 13 53
+ 0.15 1 3 cbr 210 ------- 1 1.0 3.0 40 54
- 0.15 1 3 cbr 210 ------- 1 1.0 3.0 40 54
r 0.15187 3 7 cbr 210 ------- 1 3.1 7.0 13 53
r 0.152336 1 3 cbr 210 ------- 1 1.0 3.0 40 54
+ 0.1525 3 7 cbr 210 ------- 1 3.1 7.0 14 55
- 0.1525 3 7 cbr 210 ------- 1 3.1 7.0 14 55
+ 0.15375 1 3 cbr 210 ------- 1 1.0 3.0 41 56
- 0.15375 1 3 cbr 210 ------- 1 1.0 3.0 41 56
r 0.15562 3 7 cbr 210 ------- 1 3.1 7.0 14 55
r 0.156086 1 3 cbr 210 ------- 1 1.0 3.0 41 56
+ 0.15625 3 7 cbr 210 ------- 1 3.1 7.0 15 57
- 0.15625 3 7 cbr 210 ------- 1 3.1 7.0 15 57
+ 0.1575 1 3 cbr 210 ------- 1 1.0 3.0 42 58
- 0.1575 1 3 cbr 210 ------- 1 1.0 3.0 42 58
r 0.15937 3 7 cbr 210 ------- 1 3.1 7.0 15 57
r 0.159836 1 3 cbr 210 ------- 1 1.0 3.0 42 58
+ 0.16 3 7 cbr 210 ------- 1 3.1 7.0 16 59
- 0.16 3 7 cbr 210 ------- 1 3.1 7.0 16 59
+ 0.16125 1 3 cbr 210 ------- 1 1.0 3.0 43 60
- 0.16125 1 3 cbr 210 ------- 1 1.0 3.0 43 60
r 0.16312 3 7 cbr 210 ------- 1 3.1 7.0 16 59
r 0.163586 1 3 cbr 210 ------- 1 1.0 3.0 43 60
+ 0.16375 3 7 cbr 210 ------- 1 3.1 7.0 17 61
- 0.16375 3 7 cbr 210 ------- 1 3.1 7.0 17 61
+ 0.165 1 3 cbr 210 ------- 1 1.0 3.0 44 62
- 0.165 1 3 cbr 210 ------- 1 1.0 3.0 44 62
r 0.16687 3 7 cbr 210 ------- 1 3.1 7.0 17 61
r 0.167336 1 3 cbr 210 ------- 1 1.0 3.0 44 62
+ 0.1675 3 7 cbr 210 ------- 1 3.1 7.0 18 63
- 0.1675 3 7 cbr 210 ------- 1 3.1 7.0 18 63
+ 0.16875 1 3 cbr 210 ------- 1 1.0 3.0 45 64
- 0.16875 1 3 cbr 210 ------- 1 1.0 3.0 45 64
r 0.17062 3 7 cbr 210 ------- 1 3.1 7.0 18 63
r 0.171086 1 3 cbr 210 ------- 1 1.0 3.0 45 64
+ 0.17125 3 7 cbr 210 ------- 1 3.1 7.0 19 65
- 0.17125 3 7 cbr 210 ------- 1 3.1 7.0 19 65
+ 0.1725 1 3 cbr 210 ------- 1 1.0 3.0 46 66
- 0.1725 1 3 cbr 210 ------- 1 1.0 3.0 46 66
r 0.17437 3 7 cbr 210 ------- 1 3.1 7.0 19 65
r 0.174836 1 3 cbr 210 ------- 1 1.0 3.0 46 66
+ 0.175 3 7 cbr 210 ------- 1 3.1 7.0 20 67
- 0.175 3 7 cbr 210 ------- 1 3.1 7.0 20 67
+ 0.17625 1 3 cbr 210 ------- 1 1.0 3.0 47 68
- 0.17625 1 3 cbr 210 ------- 1 1.0 3.0 47 68
r 0.17812 3 7 cbr 210 ------- 1 3.1 7.0 20 67
r 0.178586 1 3 cbr 210 ------- 1 1.0 3.0 47 68
+ 0.17875 3 7 cbr 210 ------- 1 3.1 7.0 21 69
- 0.17875 3 7 cbr 210 ------- 1 3.1 7.0 21 69
+ 0.18 1 3 cbr 210 ------- 1 1.0 3.0 48 70
- 0.18 1 3 cbr 210 ------- 1 1.0 3.0 48 70
r 0.18187 3 7 cbr 210 ------- 1 3.1 7.0 21 69
r 0.182336 1 3 cbr 210 ------- 1 1.0 3.0 48 70
+ 0.1825 3 7 cbr 210 ------- 1 3.1 7.0 22 71
- 0.1825 3 7 cbr 210 ------- 1 3.1 7.0 22 71
+ 0.18375 1 3 cbr 210 ------- 1 1.0 3.0 49 72
- 0.18375 1 3 cbr 210 ------- 1 1.0 3.0 49 72
r 0.18562 3 7 cbr 210 ------- 1 3.1 7.0 22 71
r 0.186086 1 3 cbr 210 ------- 1 1.0 3.0 49 72
+ 0.18625 3 7 cbr 210 ------- 1 3.1 7.0 23 73
- 0.18625 3 7 cbr 210 ------- 1 3.1 7.0 23 73
+ 0.1875 1 3 cbr 210 ------- 1 1.0 3.0 50 74
- 0.1875 1 3 cbr 210 ------- 1 1.0 3.0 50 74
r 0.18937 3 7 cbr 210 ------- 1 3.1 7.0 23 73
r 0.189836 1 3 cbr 210 ------- 1 1.0 3.0 50 74
+ 0.19 3 7 cbr 210 ------- 1 3.1 7.0 24 75
- 0.19 3 7 cbr 210 ------- 1 3.1 7.0 24 75
+ 0.19125 1 3 cbr 210 ------- 1 1.0 3.0 51 76
- 0.19125 1 3 cbr 210 ------- 1 1.0 3.0 51 76
r 0.19312 3 7 cbr 210 ------- 1 3.1 7.0 24 75
r 0.193586 1 3 cbr 210 ------- 1 1.0 3.0 51 76
+ 0.19375 3 7 cbr 210 ------- 1 3.1 7.0 25 77
- 0.19375 3 7 cbr 210 ------- 1 3.1 7.0 25 77
+ 0.195 1 3 cbr 210 ------- 1 1.0 3.0 52 78
- 0.195 1 3 cbr 210 ------- 1 1.0 3.0 52 78
r 0.19687 3 7 cbr 210 ------- 1 3.1 7.0 25 77
r 0.197336 1 3 cbr 210 ------- 1 1.0 3.0 52 78
+ 0.1975 3 7 cbr 210 ------- 1 3.1 7.0 26 79
- 0.1975 3 7 cbr 210 ------- 1 3.1 7.0 26 79
+ 0.19875 1 3 cbr 210 ------- 1 1.0 3.0 53 80
- 0.19875 1 3 cbr 210 ------- 1 1.0 3.0 53 80
+ 0.2 7 8 cbr 210 ------- 1 7.1 8.0 0 81
- 0.2 7 8 cbr 210 ------- 1 7.1 8.0 0 81
r 0.20062 3 7 cbr 210 ------- 1 3.1 7.0 26 79
r 0.201086 1 3 cbr 210 ------- 1 1.0 3.0 53 80
+ 0.20125 3 7 cbr 210 ------- 1 3.1 7.0 27 82
- 0.20125 3 7 cbr 210 ------- 1 3.1 7.0 27 82
r 0.202336 7 8 cbr 210 ------- 1 7.1 8.0 0 81
+ 0.2025 1 3 cbr 210 ------- 1 1.0 3.0 54 83
- 0.2025 1 3 cbr 210 ------- 1 1.0 3.0 54 83
+ 0.20375 7 8 cbr 210 ------- 1 7.1 8.0 1 84
- 0.20375 7 8 cbr 210 ------- 1 7.1 8.0 1 84
r 0.20437 3 7 cbr 210 ------- 1 3.1 7.0 27 82
r 0.204836 1 3 cbr 210 ------- 1 1.0 3.0 54 83
+ 0.205 3 7 cbr 210 ------- 1 3.1 7.0 28 85
- 0.205 3 7 cbr 210 ------- 1 3.1 7.0 28 85
r 0.206086 7 8 cbr 210 ------- 1 7.1 8.0 1 84
+ 0.20625 1 3 cbr 210 ------- 1 1.0 3.0 55 86
- 0.20625 1 3 cbr 210 ------- 1 1.0 3.0 55 86
+ 0.2075 7 8 cbr 210 ------- 1 7.1 8.0 2 87
- 0.2075 7 8 cbr 210 ------- 1 7.1 8.0 2 87
r 0.20812 3 7 cbr 210 ------- 1 3.1 7.0 28 85
r 0.208586 1 3 cbr 210 ------- 1 1.0 3.0 55 86
+ 0.20875 3 7 cbr 210 ------- 1 3.1 7.0 29 88
- 0.20875 3 7 cbr 210 ------- 1 3.1 7.0 29 88
r 0.209836 7 8 cbr 210 ------- 1 7.1 8.0 2 87
+ 0.21 1 3 cbr 210 ------- 1 1.0 3.0 56 89
- 0.21 1 3 cbr 210 ------- 1 1.0 3.0 56 89
+ 0.21125 7 8 cbr 210 ------- 1 7.1 8.0 3 90
- 0.21125 7 8 cbr 210 ------- 1 7.1 8.0 3 90
r 0.21187 3 7 cbr 210 ------- 1 3.1 7.0 29 88
r 0.212336 1 3 cbr 210 ------- 1 1.0 3.0 56 89
+ 0.2125 3 7 cbr 210 ------- 1 3.1 7.0 30 91
- 0.2125 3 7 cbr 210 ------- 1 3.1 7.0 30 91
r 0.213586 7 8 cbr 210 ------- 1 7.1 8.0 3 90
+ 0.21375 1 3 cbr 210 ------- 1 1.0 3.0 57 92
- 0.21375 1 3 cbr 210 ------- 1 1.0 3.0 57 92
+ 0.215 7 8 cbr 210 ------- 1 7.1 8.0 4 93
- 0.215 7 8 cbr 210 ------- 1 7.1 8.0 4 93
r 0.21562 3 7 cbr 210 ------- 1 3.1 7.0 30 91
r 0.216086 1 3 cbr 210 ------- 1 1.0 3.0 57 92
+ 0.21625 3 7 cbr 210 ------- 1 3.1 7.0 31 94
- 0.21625 3 7 cbr 210 ------- 1 3.1 7.0 31 94
r 0.217336 7 8 cbr 210 ------- 1 7.1 8.0 4 93
+ 0.2175 1 3 cbr 210 ------- 1 1.0 3.0 58 95
- 0.2175 1 3 cbr 210 ------- 1 1.0 3.0 58 95
+ 0.21875 7 8 cbr 210 ------- 1 7.1 8.0 5 96
- 0.21875 7 8 cbr 210 ------- 1 7.1 8.0 5 96
r 0.21937 3 7 cbr 210 ------- 1 3.1 7.0 31 94
r 0.219836 1 3 cbr 210 ------- 1 1.0 3.0 58 95
+ 0.22 3 7 cbr 210 ------- 1 3.1 7.0 32 97
- 0.22 3 7 cbr 210 ------- 1 3.1 7.0 32 97
r 0.221086 7 8 cbr 210 ------- 1 7.1 8.0 5 96
+ 0.22125 1 3 cbr 210 ------- 1 1.0 3.0 59 98
- 0.22125 1 3 cbr 210 ------- 1 1.0 3.0 59 98
+ 0.2225 7 8 cbr 210 ------- 1 7.1 8.0 6 99
- 0.2225 7 8 cbr 210 ------- 1 7.1 8.0 6 99
r 0.22312 3 7 cbr 210 ------- 1 3.1 7.0 32 97
r 0.223586 1 3 cbr 210 ------- 1 1.0 3.0 59 98
+ 0.22375 3 7 cbr 210 ------- 1 3.1 7.0 33 100
- 0.22375 3 7 cbr 210 ------- 1 3.1 7.0 33 100
r 0.224836 7 8 cbr 210 ------- 1 7.1 8.0 6 99
+ 0.225 1 3 cbr 210 ------- 1 1.0 3.0 60 101
- 0.225 1 3 cbr 210 ------- 1 1.0 3.0 60 101
+ 0.22625 7 8 cbr 210 ------- 1 7.1 8.0 7 102
- 0.22625 7 8 cbr 210 ------- 1 7.1 8.0 7 102
r 0.22687 3 7 cbr 210 ------- 1 3.1 7.0 33 100
r 0.227336 1 3 cbr 210 ------- 1 1.0 3.0 60 101
+ 0.2275 3 7 cbr 210 ------- 1 3.1 7.0 34 103
- 0.2275 3 7 cbr 210 ------- 1 3.1 7.0 34 103
r 0.228586 7 8 cbr 210 ------- 1 7.1 8.0 7 102
+ 0.22875 1 3 cbr 210 ------- 1 1.0 3.0 61 104
- 0.22875 1 3 cbr 210 ------- 1 1.0 3.0 61 104
+ 0.23 7 8 cbr 210 ------- 1 7.1 8.0 8 105
- 0.23 7 8 cbr 210 ------- 1 7.1 8.0 8 105
r 0.23062 3 7 cbr 210 ------- 1 3.1 7.0 34 103
r 0.231086 1 3 cbr 210 ------- 1 1.0 3.0 61 104
+ 0.23125 3 7 cbr 210 ------- 1 3.1 7.0 35 106
- 0.23125 3 7 cbr 210 ------- 1 3.1 7.0 35 106
r 0.232336 7 8 cbr 210 ------- 1 7.1 8.0 8 105
+ 0.2325 1 3 cbr 210 ------- 1 1.0 3.0 62 107
- 0.2325 1 3 cbr 210 ------- 1 1.0 3.0 62 107
+ 0.23375 7 8 cbr 210 ------- 1 7.1 8.0 9 108
- 0.23375 7 8 cbr 210 ------- 1 7.1 8.0 9 108
r 0.23437 3 7 cbr 210 ------- 1 3.1 7.0 35 106
r 0.234836 1 3 cbr 210 ------- 1 1.0 3.0 62 107
+ 0.235 3 7 cbr 210 ------- 1 3.1 7.0 36 109
- 0.235 3 7 cbr 210 ------- 1 3.1 7.0 36 109
r 0.236086 7 8 cbr 210 ------- 1 7.1 8.0 9 108
+ 0.23625 1 3 cbr 210 ------- 1 1.0 3.0 63 110
- 0.23625 1 3 cbr 210 ------- 1 1.0 3.0 63 110
+ 0.2375 7 8 cbr 210 ------- 1 7.1 8.0 10 111
- 0.2375 7 8 cbr 210 ------- 1 7.1 8.0 10 111
r 0.23812 3 7 cbr 210 ------- 1 3.1 7.0 36 109
r 0.238586 1 3 cbr 210 ------- 1 1.0 3.0 63 110
+ 0.23875 3 7 cbr 210 ------- 1 3.1 7.0 37 112
- 0.23875 3 7 cbr 210 ------- 1 3.1 7.0 37 112
r 0.239836 7 8 cbr 210 ------- 1 7.1 8.0 10 111
+ 0.24 1 3 cbr 210 ------- 1 1.0 3.0 64 113
- 0.24 1 3 cbr 210 ------- 1 1.0 3.0 64 113
+ 0.24125 7 8 cbr 210 ------- 1 7.1 8.0 11 114
- 0.24125 7 8 cbr 210 ------- 1 7.1 8.0 11 114
r 0.24187 3 7 cbr 210 ------- 1 3.1 7.0 37 112
r 0.242336 1 3 cbr 210 ------- 1 1.0 3.0 64 113
+ 0.2425 3 7 cbr 210 ------- 1 3.1 7.0 38 115
- 0.2425 3 7 cbr 210 ------- 1 3.1 7.0 38 115
r 0.243586 7 8 cbr 210 ------- 1 7.1 8.0 11 114
+ 0.24375 1 3 cbr 210 ------- 1 1.0 3.0 65 116
- 0.24375 1 3 cbr 210 ------- 1 1.0 3.0 65 116
+ 0.245 7 8 cbr 210 ------- 1 7.1 8.0 12 117
- 0.245 7 8 cbr 210 ------- 1 7.1 8.0 12 117
r 0.24562 3 7 cbr 210 ------- 1 3.1 7.0 38 115
r 0.246086 1 3 cbr 210 ------- 1 1.0 3.0 65 116
+ 0.24625 3 7 cbr 210 ------- 1 3.1 7.0 39 118
- 0.24625 3 7 cbr 210 ------- 1 3.1 7.0 39 118
r 0.247336 7 8 cbr 210 ------- 1 7.1 8.0 12 117
+ 0.2475 1 3 cbr 210 ------- 1 1.0 3.0 66 119
- 0.2475 1 3 cbr 210 ------- 1 1.0 3.0 66 119
+ 0.24875 7 8 cbr 210 ------- 1 7.1 8.0 13 120
- 0.24875 7 8 cbr 210 ------- 1 7.1 8.0 13 120
r 0.24937 3 7 cbr 210 ------- 1 3.1 7.0 39 118
r 0.249836 1 3 cbr 210 ------- 1 1.0 3.0 66 119
+ 0.25 3 7 cbr 210 ------- 1 3.1 7.0 40 121
- 0.25 3 7 cbr 210 ------- 1 3.1 7.0 40 121
r 0.251086 7 8 cbr 210 ------- 1 7.1 8.0 13 120
+ 0.25125 1 3 cbr 210 ------- 1 1.0 3.0 67 122
- 0.25125 1 3 cbr 210 ------- 1 1.0 3.0 67 122
+ 0.2525 7 8 cbr 210 ------- 1 7.1 8.0 14 123
- 0.2525 7 8 cbr 210 ------- 1 7.1 8.0 14 123
r 0.25312 3 7 cbr 210 ------- 1 3.1 7.0 40 121
r 0.253586 1 3 cbr 210 ------- 1 1.0 3.0 67 122
+ 0.25375 3 7 cbr 210 ------- 1 3.1 7.0 41 124
- 0.25375 3 7 cbr 210 ------- 1 3.1 7.0 41 124
r 0.254836 7 8 cbr 210 ------- 1 7.1 8.0 14 123
+ 0.255 1 3 cbr 210 ------- 1 1.0 3.0 68 125
- 0.255 1 3 cbr 210 ------- 1 1.0 3.0 68 125
+ 0.25625 7 8 cbr 210 ------- 1 7.1 8.0 15 126
- 0.25625 7 8 cbr 210 ------- 1 7.1 8.0 15 126
r 0.25687 3 7 cbr 210 ------- 1 3.1 7.0 41 124
r 0.257336 1 3 cbr 210 ------- 1 1.0 3.0 68 125
+ 0.2575 3 7 cbr 210 ------- 1 3.1 7.0 42 127
- 0.2575 3 7 cbr 210 ------- 1 3.1 7.0 42 127
r 0.258586 7 8 cbr 210 ------- 1 7.1 8.0 15 126
+ 0.25875 1 3 cbr 210 ------- 1 1.0 3.0 69 128
- 0.25875 1 3 cbr 210 ------- 1 1.0 3.0 69 128
+ 0.26 7 8 cbr 210 ------- 1 7.1 8.0 16 129
- 0.26 7 8 cbr 210 ------- 1 7.1 8.0 16 129
r 0.26062 3 7 cbr 210 ------- 1 3.1 7.0 42 127
r 0.261086 1 3 cbr 210 ------- 1 1.0 3.0 69 128
+ 0.26125 3 7 cbr 210 ------- 1 3.1 7.0 43 130
- 0.26125 3 7 cbr 210 ------- 1 3.1 7.0 43 130
r 0.262336 7 8 cbr 210 ------- 1 7.1 8.0 16 129
+ 0.2625 1 3 cbr 210 ------- 1 1.0 3.0 70 131
- 0.2625 1 3 cbr 210 ------- 1 1.0 3.0 70 131
+ 0.26375 7 8 cbr 210 ------- 1 7.1 8.0 17 132
- 0.26375 7 8 cbr 210 ------- 1 7.1 8.0 17 132
r 0.26437 3 7 cbr 210 ------- 1 3.1 7.0 43 130
r 0.264836 1 3 cbr 210 ------- 1 1.0 3.0 70 131
+ 0.265 3 7 cbr 210 ------- 1 3.1 7.0 44 133
- 0.265 3 7 cbr 210 ------- 1 3.1 7.0 44 133
r 0.266086 7 8 cbr 210 ------- 1 7.1 8.0 17 132
+ 0.26625 1 3 cbr 210 ------- 1 1.0 3.0 71 134
- 0.26625 1 3 cbr 210 ------- 1 1.0 3.0 71 134
+ 0.2675 7 8 cbr 210 ------- 1 7.1 8.0 18 135
- 0.2675 7 8 cbr 210 ------- 1 7.1 8.0 18 135
r 0.26812 3 7 cbr 210 ------- 1 3.1 7.0 44 133
r 0.268586 1 3 cbr 210 ------- 1 1.0 3.0 71 134
+ 0.26875 3 7 cbr 210 ------- 1 3.1 7.0 45 136
- 0.26875 3 7 cbr 210 ------- 1 3.1 7.0 45 136
r 0.269836 7 8 cbr 210 ------- 1 7.1 8.0 18 135
+ 0.27 1 3 cbr 210 ------- 1 1.0 3.0 72 137
- 0.27 1 3 cbr 210 ------- 1 1.0 3.0 72 137
+ 0.27125 7 8 cbr 210 ------- 1 7.1 8.0 19 138
- 0.27125 7 8 cbr 210 ------- 1 7.1 8.0 19 138
r 0.27187 3 7 cbr 210 ------- 1 3.1 7.0 45 136
r 0.272336 1 3 cbr 210 ------- 1 1.0 3.0 72 137
+ 0.2725 3 7 cbr 210 ------- 1 3.1 7.0 46 139
- 0.2725 3 7 cbr 210 ------- 1 3.1 7.0 46 139
r 0.273586 7 8 cbr 210 ------- 1 7.1 8.0 19 138
+ 0.27375 1 3 cbr 210 ------- 1 1.0 3.0 73 140
- 0.27375 1 3 cbr 210 ------- 1 1.0 3.0 73 140
+ 0.275 7 8 cbr 210 ------- 1 7.1 8.0 20 141
- 0.275 7 8 cbr 210 ------- 1 7.1 8.0 20 141
r 0.27562 3 7 cbr 210 ------- 1 3.1 7.0 46 139
r 0.276086 1 3 cbr 210 ------- 1 1.0 3.0 73 140
+ 0.27625 3 7 cbr 210 ------- 1 3.1 7.0 47 142
- 0.27625 3 7 cbr 210 ------- 1 3.1 7.0 47 142
r 0.277336 7 8 cbr 210 ------- 1 7.1 8.0 20 141
+ 0.2775 1 3 cbr 210 ------- 1 1.0 3.0 74 143
- 0.2775 1 3 cbr 210 ------- 1 1.0 3.0 74 143
+ 0.27875 7 8 cbr 210 ------- 1 7.1 8.0 21 144
- 0.27875 7 8 cbr 210 ------- 1 7.1 8.0 21 144
r 0.27937 3 7 cbr 210 ------- 1 3.1 7.0 47 142
r 0.279836 1 3 cbr 210 ------- 1 1.0 3.0 74 143
+ 0.28 3 7 cbr 210 ------- 1 3.1 7.0 48 145
- 0.28 3 7 cbr 210 ------- 1 3.1 7.0 48 145
r 0.281086 7 8 cbr 210 ------- 1 7.1 8.0 21 144
+ 0.28125 1 3 cbr 210 ------- 1 1.0 3.0 75 146
- 0.28125 1 3 cbr 210 ------- 1 1.0 3.0 75 146
+ 0.2825 7 8 cbr 210 ------- 1 7.1 8.0 22 147
- 0.2825 7 8 cbr 210 ------- 1 7.1 8.0 22 147
r 0.28312 3 7 cbr 210 ------- 1 3.1 7.0 48 145
r 0.283586 1 3 cbr 210 ------- 1 1.0 3.0 75 146
+ 0.28375 3 7 cbr 210 ------- 1 3.1 7.0 49 148
- 0.28375 3 7 cbr 210 ------- 1 3.1 7.0 49 148
r 0.284836 7 8 cbr 210 ------- 1 7.1 8.0 22 147
+ 0.285 1 3 cbr 210 ------- 1 1.0 3.0 76 149
- 0.285 1 3 cbr 210 ------- 1 1.0 3.0 76 149
+ 0.28625 7 8 cbr 210 ------- 1 7.1 8.0 23 150
- 0.28625 7 8 cbr 210 ------- 1 7.1 8.0 23 150
r 0.28687 3 7 cbr 210 ------- 1 3.1 7.0 49 148
r 0.287336 1 3 cbr 210 ------- 1 1.0 3.0 76 149
+ 0.2875 3 7 cbr 210 ------- 1 3.1 7.0 50 151
- 0.2875 3 7 cbr 210 ------- 1 3.1 7.0 50 151
r 0.288586 7 8 cbr 210 ------- 1 7.1 8.0 23 150
+ 0.28875 1 3 cbr 210 ------- 1 1.0 3.0 77 152
- 0.28875 1 3 cbr 210 ------- 1 1.0 3.0 77 152
+ 0.29 7 8 cbr 210 ------- 1 7.1 8.0 24 153
- 0.29 7 8 cbr 210 ------- 1 7.1 8.0 24 153
r 0.29062 3 7 cbr 210 ------- 1 3.1 7.0 50 151
r 0.291086 1 3 cbr 210 ------- 1 1.0 3.0 77 152
+ 0.29125 3 7 cbr 210 ------- 1 3.1 7.0 51 154
- 0.29125 3 7 cbr 210 ------- 1 3.1 7.0 51 154
r 0.292336 7 8 cbr 210 ------- 1 7.1 8.0 24 153
+ 0.2925 1 3 cbr 210 ------- 1 1.0 3.0 78 155
- 0.2925 1 3 cbr 210 ------- 1 1.0 3.0 78 155
+ 0.29375 7 8 cbr 210 ------- 1 7.1 8.0 25 156
- 0.29375 7 8 cbr 210 ------- 1 7.1 8.0 25 156
r 0.29437 3 7 cbr 210 ------- 1 3.1 7.0 51 154
r 0.294836 1 3 cbr 210 ------- 1 1.0 3.0 78 155
+ 0.295 3 7 cbr 210 ------- 1 3.1 7.0 52 157
- 0.295 3 7 cbr 210 ------- 1 3.1 7.0 52 157
r 0.296086 7 8 cbr 210 ------- 1 7.1 8.0 25 156
+ 0.29625 1 3 cbr 210 ------- 1 1.0 3.0 79 158
- 0.29625 1 3 cbr 210 ------- 1 1.0 3.0 79 158
+ 0.2975 7 8 cbr 210 ------- 1 7.1 8.0 26 159
- 0.2975 7 8 cbr 210 ------- 1 7.1 8.0 26 159
r 0.29812 3 7 cbr 210 ------- 1 3.1 7.0 52 157
r 0.298586 1 3 cbr 210 ------- 1 1.0 3.0 79 158
+ 0.29875 3 7 cbr 210 ------- 1 3.1 7.0 53 160
- 0.29875 3 7 cbr 210 ------- 1 3.1 7.0 53 160
r 0.299836 7 8 cbr 210 ------- 1 7.1 8.0 26 159
+ 0.3 1 3 cbr 210 ------- 1 1.0 3.0 80 161
- 0.3 1 3 cbr 210 ------- 1 1.0 3.0 80 161
+ 0.3 7 9 tcp 40 ------- 0 7.2 9.1 0 162
- 0.3 7 9 tcp 40 ------- 0 7.2 9.1 0 162
+ 0.30125 7 8 cbr 210 ------- 1 7.1 8.0 27 163
- 0.30125 7 8 cbr 210 ------- 1 7.1 8.0 27 163
r 0.30187 3 7 cbr 210 ------- 1 3.1 7.0 53 160
r 0.302064 7 9 tcp 40 ------- 0 7.2 9.1 0 162
+ 0.302064 9 7 ack 40 ------- 0 9.1 7.2 0 164
- 0.302064 9 7 ack 40 ------- 0 9.1 7.2 0 164
r 0.302336 1 3 cbr 210 ------- 1 1.0 3.0 80 161
+ 0.3025 3 7 cbr 210 ------- 1 3.1 7.0 54 165
- 0.3025 3 7 cbr 210 ------- 1 3.1 7.0 54 165
r 0.303586 7 8 cbr 210 ------- 1 7.1 8.0 27 163
+ 0.30375 1 3 cbr 210 ------- 1 1.0 3.0 81 166
- 0.30375 1 3 cbr 210 ------- 1 1.0 3.0 81 166
r 0.304128 9 7 ack 40 ------- 0 9.1 7.2 0 164
+ 0.304128 7 9 tcp 1040 ------- 0 7.2 9.1 1 167
- 0.304128 7 9 tcp 1040 ------- 0 7.2 9.1 1 167
+ 0.304128 7 9 tcp 1040 ------- 0 7.2 9.1 2 168
+ 0.305 7 8 cbr 210 ------- 1 7.1 8.0 28 169
- 0.305 7 8 cbr 210 ------- 1 7.1 8.0 28 169
r 0.30562 3 7 cbr 210 ------- 1 3.1 7.0 54 165
- 0.305792 7 9 tcp 1040 ------- 0 7.2 9.1 2 168
r 0.306086 1 3 cbr 210 ------- 1 1.0 3.0 81 166
+ 0.30625 3 7 cbr 210 ------- 1 3.1 7.0 55 170
- 0.30625 3 7 cbr 210 ------- 1 3.1 7.0 55 170
r 0.307336 7 8 cbr 210 ------- 1 7.1 8.0 28 169
+ 0.3075 1 3 cbr 210 ------- 1 1.0 3.0 82 171
- 0.3075 1 3 cbr 210 ------- 1 1.0 3.0 82 171
r 0.307792 7 9 tcp 1040 ------- 0 7.2 9.1 1 167
+ 0.307792 9 7 ack 40 ------- 0 9.1 7.2 1 172
- 0.307792 9 7 ack 40 ------- 0 9.1 7.2 1 172
+ 0.30875 7 8 cbr 210 ------- 1 7.1 8.0 29 173
- 0.30875 7 8 cbr 210 ------- 1 7.1 8.0 29 173
r 0.30937 3 7 cbr 210 ------- 1 3.1 7.0 55 170
r 0.309456 7 9 tcp 1040 ------- 0 7.2 9.1 2 168
+ 0.309456 9 7 ack 40 ------- 0 9.1 7.2 2 174
- 0.309456 9 7 ack 40 ------- 0 9.1 7.2 2 174
r 0.309836 1 3 cbr 210 ------- 1 1.0 3.0 82 171
r 0.309856 9 7 ack 40 ------- 0 9.1 7.2 1 172
+ 0.309856 7 9 tcp 1040 ------- 0 7.2 9.1 3 175
- 0.309856 7 9 tcp 1040 ------- 0 7.2 9.1 3 175
+ 0.309856 7 9 tcp 1040 ------- 0 7.2 9.1 4 176
+ 0.31 3 7 cbr 210 ------- 1 3.1 7.0 56 177
- 0.31 3 7 cbr 210 ------- 1 3.1 7.0 56 177
r 0.311086 7 8 cbr 210 ------- 1 7.1 8.0 29 173
+ 0.31125 1 3 cbr 210 ------- 1 1.0 3.0 83 178
- 0.31125 1 3 cbr 210 ------- 1 1.0 3.0 83 178
r 0.31152 9 7 ack 40 ------- 0 9.1 7.2 2 174
+ 0.31152 7 9 tcp 1040 ------- 0 7.2 9.1 5 179
+ 0.31152 7 9 tcp 1040 ------- 0 7.2 9.1 6 180
- 0.31152 7 9 tcp 1040 ------- 0 7.2 9.1 4 176
+ 0.3125 7 8 cbr 210 ------- 1 7.1 8.0 30 181
- 0.3125 7 8 cbr 210 ------- 1 7.1 8.0 30 181
r 0.31312 3 7 cbr 210 ------- 1 3.1 7.0 56 177
- 0.313184 7 9 tcp 1040 ------- 0 7.2 9.1 5 179
r 0.31352 7 9 tcp 1040 ------- 0 7.2 9.1 3 175
+ 0.31352 9 7 ack 40 ------- 0 9.1 7.2 3 182
- 0.31352 9 7 ack 40 ------- 0 9.1 7.2 3 182
r 0.313586 1 3 cbr 210 ------- 1 1.0 3.0 83 178
+ 0.31375 3 7 cbr 210 ------- 1 3.1 7.0 57 183
- 0.31375 3 7 cbr 210 ------- 1 3.1 7.0 57 183
r 0.314836 7 8 cbr 210 ------- 1 7.1 8.0 30 181
- 0.314848 7 9 tcp 1040 ------- 0 7.2 9.1 6 180
+ 0.315 1 3 cbr 210 ------- 1 1.0 3.0 84 184
- 0.315 1 3 cbr 210 ------- 1 1.0 3.0 84 184
r 0.315184 7 9 tcp 1040 ------- 0 7.2 9.1 4 176
+ 0.315184 9 7 ack 40 ------- 0 9.1 7.2 4 185
- 0.315184 9 7 ack 40 ------- 0 9.1 7.2 4 185
r 0.315584 9 7 ack 40 ------- 0 9.1 7.2 3 182
+ 0.315584 7 9 tcp 1040 ------- 0 7.2 9.1 7 186
+ 0.315584 7 9 tcp 1040 ------- 0 7.2 9.1 8 187
+ 0.31625 7 8 cbr 210 ------- 1 7.1 8.0 31 188
- 0.31625 7 8 cbr 210 ------- 1 7.1 8.0 31 188
- 0.316512 7 9 tcp 1040 ------- 0 7.2 9.1 7 186
r 0.316848 7 9 tcp 1040 ------- 0 7.2 9.1 5 179
+ 0.316848 9 7 ack 40 ------- 0 9.1 7.2 5 189
- 0.316848 9 7 ack 40 ------- 0 9.1 7.2 5 189
r 0.31687 3 7 cbr 210 ------- 1 3.1 7.0 57 183
r 0.317248 9 7 ack 40 ------- 0 9.1 7.2 4 185
+ 0.317248 7 9 tcp 1040 ------- 0 7.2 9.1 9 190
+ 0.317248 7 9 tcp 1040 ------- 0 7.2 9.1 10 191
r 0.317336 1 3 cbr 210 ------- 1 1.0 3.0 84 184
+ 0.3175 3 7 cbr 210 ------- 1 3.1 7.0 58 192
- 0.3175 3 7 cbr 210 ------- 1 3.1 7.0 58 192
- 0.318176 7 9 tcp 1040 ------- 0 7.2 9.1 8 187
r 0.318512 7 9 tcp 1040 ------- 0 7.2 9.1 6 180
+ 0.318512 9 7 ack 40 ------- 0 9.1 7.2 6 193
- 0.318512 9 7 ack 40 ------- 0 9.1 7.2 6 193
r 0.318586 7 8 cbr 210 ------- 1 7.1 8.0 31 188
+ 0.31875 1 3 cbr 210 ------- 1 1.0 3.0 85 194
- 0.31875 1 3 cbr 210 ------- 1 1.0 3.0 85 194
r 0.318912 9 7 ack 40 ------- 0 9.1 7.2 5 189
+ 0.318912 7 9 tcp 1040 ------- 0 7.2 9.1 11 195
+ 0.318912 7 9 tcp 1040 ------- 0 7.2 9.1 12 196
- 0.31984 7 9 tcp 1040 ------- 0 7.2 9.1 9 190
+ 0.32 7 8 cbr 210 ------- 1 7.1 8.0 32 197
- 0.32 7 8 cbr 210 ------- 1 7.1 8.0 32 197
r 0.320176 7 9 tcp 1040 ------- 0 7.2 9.1 7 186
+ 0.320176 9 7 ack 40 ------- 0 9.1 7.2 7 198
- 0.320176 9 7 ack 40 ------- 0 9.1 7.2 7 198
r 0.320576 9 7 ack 40 ------- 0 9.1 7.2 6 193
+ 0.320576 7 9 tcp 1040 ------- 0 7.2 9.1 13 199
+ 0.320576 7 9 tcp 1040 ------- 0 7.2 9.1 14 200
r 0.32062 3 7 cbr 210 ------- 1 3.1 7.0 58 192
r 0.321086 1 3 cbr 210 ------- 1 1.0 3.0 85 194
+ 0.32125 3 7 cbr 210 ------- 1 3.1 7.0 59 201
- 0.32125 3 7 cbr 210 ------- 1 3.1 7.0 59 201
- 0.321504 7 9 tcp 1040 ------- 0 7.2 9.1 10 191
r 0.32184 7 9 tcp 1040 ------- 0 7.2 9.1 8 187
+ 0.32184 9 7 ack 40 ------- 0 9.1 7.2 8 202
- 0.32184 9 7 ack 40 ------- 0 9.1 7.2 8 202
r 0.32224 9 7 ack 40 ------- 0 9.1 7.2 7 198
+ 0.32224 7 9 tcp 1040 ------- 0 7.2 9.1 15 203
+ 0.32224 7 9 tcp 1040 ------- 0 7.2 9.1 16 204
r 0.322336 7 8 cbr 210 ------- 1 7.1 8.0 32 197
+ 0.3225 1 3 cbr 210 ------- 1 1.0 3.0 86 205
- 0.3225 1 3 cbr 210 ------- 1 1.0 3.0 86 205
- 0.323168 7 9 tcp 1040 ------- 0 7.2 9.1 11 195
r 0.323504 7 9 tcp 1040 ------- 0 7.2 9.1 9 190
+ 0.323504 9 7 ack 40 ------- 0 9.1 7.2 9 206
- 0.323504 9 7 ack 40 ------- 0 9.1 7.2 9 206
+ 0.32375 7 8 cbr 210 ------- 1 7.1 8.0 33 207
- 0.32375 7 8 cbr 210 ------- 1 7.1 8.0 33 207
r 0.323904 9 7 ack 40 ------- 0 9.1 7.2 8 202
+ 0.323904 7 9 tcp 1040 ------- 0 7.2 9.1 17 208
+ 0.323904 7 9 tcp 1040 ------- 0 7.2 9.1 18 209
r 0.32437 3 7 cbr 210 ------- 1 3.1 7.0 59 201
- 0.324832 7 9 tcp 1040 ------- 0 7.2 9.1 12 196
r 0.324836 1 3 cbr 210 ------- 1 1.0 3.0 86 205
+ 0.325 3 7 cbr 210 ------- 1 3.1 7.0 60 210
- 0.325 3 7 cbr 210 ------- 1 3.1 7.0 60 210
r 0.325168 7 9 tcp 1040 ------- 0 7.2 9.1 10 191
+ 0.325168 9 7 ack 40 ------- 0 9.1 7.2 10 211
- 0.325168 9 7 ack 40 ------- 0 9.1 7.2 10 211
r 0.325568 9 7 ack 40 ------- 0 9.1 7.2 9 206
+ 0.325568 7 9 tcp 1040 ------- 0 7.2 9.1 19 212
+ 0.325568 7 9 tcp 1040 ------- 0 7.2 9.1 20 213
r 0.326086 7 8 cbr 210 ------- 1 7.1 8.0 33 207
+ 0.32625 1 3 cbr 210 ------- 1 1.0 3.0 87 214
- 0.32625 1 3 cbr 210 ------- 1 1.0 3.0 87 214
- 0.326496 7 9 tcp 1040 ------- 0 7.2 9.1 13 199
r 0.326832 7 9 tcp 1040 ------- 0 7.2 9.1 11 195
+ 0.326832 9 7 ack 40 ------- 0 9.1 7.2 11 215
- 0.326832 9 7 ack 40 ------- 0 9.1 7.2 11 215
r 0.327232 9 7 ack 40 ------- 0 9.1 7.2 10 211
+ 0.327232 7 9 tcp 1040 ------- 0 7.2 9.1 21 216
+ 0.327232 7 9 tcp 1040 ------- 0 7.2 9.1 22 217
+ 0.3275 7 8 cbr 210 ------- 1 7.1 8.0 34 218
- 0.3275 7 8 cbr 210 ------- 1 7.1 8.0 34 218
r 0.32812 3 7 cbr 210 ------- 1 3.1 7.0 60 210
- 0.32816 7 9 tcp 1040 ------- 0 7.2 9.1 14 200
r 0.328496 7 9 tcp 1040 ------- 0 7.2 9.1 12 196
+ 0.328496 9 7 ack 40 ------- 0 9.1 7.2 12 219
- 0.328496 9 7 ack 40 ------- 0 9.1 7.2 12 219
r 0.328586 1 3 cbr 210 ------- 1 1.0 3.0 87 214
+ 0.32875 3 7 cbr 210 ------- 1 3.1 7.0 61 220
- 0.32875 3 7 cbr 210 ------- 1 3.1 7.0 61 220
r 0.328896 9 7 ack 40 ------- 0 9.1 7.2 11 215
+ 0.328896 7 9 tcp 1040 ------- 0 7.2 9.1 23 221
+ 0.328896 7 9 tcp 1040 ------- 0 7.2 9.1 24 222
- 0.329824 7 9 tcp 1040 ------- 0 7.2 9.1 15 203
r 0.329836 7 8 cbr 210 ------- 1 7.1 8.0 34 218
+ 0.33 1 3 cbr 210 ------- 1 1.0 3.0 88 223
- 0.33 1 3 cbr 210 ------- 1 1.0 3.0 88 223
r 0.33016 7 9 tcp 1040 ------- 0 7.2 9.1 13 199
+ 0.33016 9 7 ack 40 ------- 0 9.1 7.2 13 224
- 0.33016 9 7 ack 40 ------- 0 9.1 7.2 13 224