+ 0.2 1 5 tcp 40 ------- 2 1.0 7.0 0 0
- 0.2 1 5 tcp 40 ------- 2 1.0 7.0 0 0
r 0.202064 1 5 tcp 40 ------- 2 1.0 7.0 0 0
+ 0.202064 5 6 tcp 40 ------- 2 1.0 7.0 0 0
- 0.202064 5 6 tcp 40 ------- 2 1.0 7.0 0 0
r 0.204277 5 6 tcp 40 ------- 2 1.0 7.0 0 0
+ 0.204277 6 7 tcp 40 ------- 2 1.0 7.0 0 0
- 0.204277 6 7 tcp 40 ------- 2 1.0 7.0 0 0
r 0.206341 6 7 tcp 40 ------- 2 1.0 7.0 0 0
+ 0.206341 7 6 ack 40 ------- 2 7.0 1.0 0 1
- 0.206341 7 6 ack 40 ------- 2 7.0 1.0 0 1
r 0.208405 7 6 ack 40 ------- 2 7.0 1.0 0 1
+ 0.208405 6 5 ack 40 ------- 2 7.0 1.0 0 1
- 0.208405 6 5 ack 40 ------- 2 7.0 1.0 0 1
r 0.210619 6 5 ack 40 ------- 2 7.0 1.0 0 1
+ 0.210619 5 1 ack 40 ------- 2 7.0 1.0 0 1
- 0.210619 5 1 ack 40 ------- 2 7.0 1.0 0 1
r 0.212683 5 1 ack 40 ------- 2 7.0 1.0 0 1
+ 0.212683 1 5 tcp 1040 ------- 2 1.0 7.0 1 2
- 0.212683 1 5 tcp 1040 ------- 2 1.0 7.0 1 2
+ 0.212683 1 5 tcp 1040 ------- 2 1.0 7.0 2 3
- 0.214347 1 5 tcp 1040 ------- 2 1.0 7.0 2 3
r 0.216347 1 5 tcp 1040 ------- 2 1.0 7.0 1 2
+ 0.216347 5 6 tcp 1040 ------- 2 1.0 7.0 1 2
- 0.216347 5 6 tcp 1040 ------- 2 1.0 7.0 1 2
r 0.218011 1 5 tcp 1040 ------- 2 1.0 7.0 2 3
+ 0.218011 5 6 tcp 1040 ------- 2 1.0 7.0 2 3
- 0.221893 5 6 tcp 1040 ------- 2 1.0 7.0 2 3
r 0.223893 5 6 tcp 1040 ------- 2 1.0 7.0 1 2
+ 0.223893 6 7 tcp 1040 ------- 2 1.0 7.0 1 2
- 0.223893 6 7 tcp 1040 ------- 2 1.0 7.0 1 2
r 0.227557 6 7 tcp 1040 ------- 2 1.0 7.0 1 2
+ 0.227557 7 6 ack 40 ------- 2 7.0 1.0 1 4
- 0.227557 7 6 ack 40 ------- 2 7.0 1.0 1 4
r 0.22944 5 6 tcp 1040 ------- 2 1.0 7.0 2 3
+ 0.22944 6 7 tcp 1040 ------- 2 1.0 7.0 2 3
- 0.22944 6 7 tcp 1040 ------- 2 1.0 7.0 2 3
r 0.229621 7 6 ack 40 ------- 2 7.0 1.0 1 4
+ 0.229621 6 5 ack 40 ------- 2 7.0 1.0 1 4
- 0.229621 6 5 ack 40 ------- 2 7.0 1.0 1 4
r 0.231835 6 5 ack 40 ------- 2 7.0 1.0 1 4
+ 0.231835 5 1 ack 40 ------- 2 7.0 1.0 1 4
- 0.231835 5 1 ack 40 ------- 2 7.0 1.0 1 4
r 0.233104 6 7 tcp 1040 ------- 2 1.0 7.0 2 3
+ 0.233104 7 6 ack 40 ------- 2 7.0 1.0 2 5
- 0.233104 7 6 ack 40 ------- 2 7.0 1.0 2 5
r 0.233899 5 1 ack 40 ------- 2 7.0 1.0 1 4
+ 0.233899 1 5 tcp 1040 ------- 2 1.0 7.0 3 6
- 0.233899 1 5 tcp 1040 ------- 2 1.0 7.0 3 6
+ 0.233899 1 5 tcp 1040 ------- 2 1.0 7.0 4 7
r 0.235168 7 6 ack 40 ------- 2 7.0 1.0 2 5
+ 0.235168 6 5 ack 40 ------- 2 7.0 1.0 2 5
- 0.235168 6 5 ack 40 ------- 2 7.0 1.0 2 5
- 0.235563 1 5 tcp 1040 ------- 2 1.0 7.0 4 7
r 0.237381 6 5 ack 40 ------- 2 7.0 1.0 2 5
+ 0.237381 5 1 ack 40 ------- 2 7.0 1.0 2 5
- 0.237381 5 1 ack 40 ------- 2 7.0 1.0 2 5
r 0.237563 1 5 tcp 1040 ------- 2 1.0 7.0 3 6
+ 0.237563 5 6 tcp 1040 ------- 2 1.0 7.0 3 6
- 0.237563 5 6 tcp 1040 ------- 2 1.0 7.0 3 6
r 0.239227 1 5 tcp 1040 ------- 2 1.0 7.0 4 7
+ 0.239227 5 6 tcp 1040 ------- 2 1.0 7.0 4 7
r 0.239445 5 1 ack 40 ------- 2 7.0 1.0 2 5
+ 0.239445 1 5 tcp 1040 ------- 2 1.0 7.0 5 8
- 0.239445 1 5 tcp 1040 ------- 2 1.0 7.0 5 8
+ 0.239445 1 5 tcp 1040 ------- 2 1.0 7.0 6 9
- 0.241109 1 5 tcp 1040 ------- 2 1.0 7.0 6 9
- 0.243109 5 6 tcp 1040 ------- 2 1.0 7.0 4 7
r 0.243109 1 5 tcp 1040 ------- 2 1.0 7.0 5 8
+ 0.243109 5 6 tcp 1040 ------- 2 1.0 7.0 5 8
r 0.244773 1 5 tcp 1040 ------- 2 1.0 7.0 6 9
+ 0.244773 5 6 tcp 1040 ------- 2 1.0 7.0 6 9
r 0.245109 5 6 tcp 1040 ------- 2 1.0 7.0 3 6
+ 0.245109 6 7 tcp 1040 ------- 2 1.0 7.0 3 6
- 0.245109 6 7 tcp 1040 ------- 2 1.0 7.0 3 6
- 0.248656 5 6 tcp 1040 ------- 2 1.0 7.0 5 8
r 0.248773 6 7 tcp 1040 ------- 2 1.0 7.0 3 6
+ 0.248773 7 6 ack 40 ------- 2 7.0 1.0 3 10
- 0.248773 7 6 ack 40 ------- 2 7.0 1.0 3 10
r 0.250656 5 6 tcp 1040 ------- 2 1.0 7.0 4 7
+ 0.250656 6 7 tcp 1040 ------- 2 1.0 7.0 4 7
- 0.250656 6 7 tcp 1040 ------- 2 1.0 7.0 4 7
r 0.250837 7 6 ack 40 ------- 2 7.0 1.0 3 10
+ 0.250837 6 5 ack 40 ------- 2 7.0 1.0 3 10
- 0.250837 6 5 ack 40 ------- 2 7.0 1.0 3 10
r 0.253051 6 5 ack 40 ------- 2 7.0 1.0 3 10
+ 0.253051 5 1 ack 40 ------- 2 7.0 1.0 3 10
- 0.253051 5 1 ack 40 ------- 2 7.0 1.0 3 10
- 0.254203 5 6 tcp 1040 ------- 2 1.0 7.0 6 9
r 0.25432 6 7 tcp 1040 ------- 2 1.0 7.0 4 7
+ 0.25432 7 6 ack 40 ------- 2 7.0 1.0 4 11
- 0.25432 7 6 ack 40 ------- 2 7.0 1.0 4 11
r 0.255115 5 1 ack 40 ------- 2 7.0 1.0 3 10
+ 0.255115 1 5 tcp 1040 ------- 2 1.0 7.0 7 12
- 0.255115 1 5 tcp 1040 ------- 2 1.0 7.0 7 12
+ 0.255115 1 5 tcp 1040 ------- 2 1.0 7.0 8 13
r 0.256203 5 6 tcp 1040 ------- 2 1.0 7.0 5 8
+ 0.256203 6 7 tcp 1040 ------- 2 1.0 7.0 5 8
- 0.256203 6 7 tcp 1040 ------- 2 1.0 7.0 5 8
r 0.256384 7 6 ack 40 ------- 2 7.0 1.0 4 11
+ 0.256384 6 5 ack 40 ------- 2 7.0 1.0 4 11
- 0.256384 6 5 ack 40 ------- 2 7.0 1.0 4 11
- 0.256779 1 5 tcp 1040 ------- 2 1.0 7.0 8 13
r 0.258597 6 5 ack 40 ------- 2 7.0 1.0 4 11
+ 0.258597 5 1 ack 40 ------- 2 7.0 1.0 4 11
- 0.258597 5 1 ack 40 ------- 2 7.0 1.0 4 11
r 0.258779 1 5 tcp 1040 ------- 2 1.0 7.0 7 12
+ 0.258779 5 6 tcp 1040 ------- 2 1.0 7.0 7 12
- 0.259749 5 6 tcp 1040 ------- 2 1.0 7.0 7 12
r 0.259867 6 7 tcp 1040 ------- 2 1.0 7.0 5 8
+ 0.259867 7 6 ack 40 ------- 2 7.0 1.0 5 14
- 0.259867 7 6 ack 40 ------- 2 7.0 1.0 5 14
r 0.260443 1 5 tcp 1040 ------- 2 1.0 7.0 8 13
+ 0.260443 5 6 tcp 1040 ------- 2 1.0 7.0 8 13
r 0.260661 5 1 ack 40 ------- 2 7.0 1.0 4 11
+ 0.260661 1 5 tcp 1040 ------- 2 1.0 7.0 9 15
- 0.260661 1 5 tcp 1040 ------- 2 1.0 7.0 9 15
+ 0.260661 1 5 tcp 1040 ------- 2 1.0 7.0 10 16
r 0.261749 5 6 tcp 1040 ------- 2 1.0 7.0 6 9
+ 0.261749 6 7 tcp 1040 ------- 2 1.0 7.0 6 9
- 0.261749 6 7 tcp 1040 ------- 2 1.0 7.0 6 9
r 0.261931 7 6 ack 40 ------- 2 7.0 1.0 5 14
+ 0.261931 6 5 ack 40 ------- 2 7.0 1.0 5 14
- 0.261931 6 5 ack 40 ------- 2 7.0 1.0 5 14
- 0.262325 1 5 tcp 1040 ------- 2 1.0 7.0 10 16
r 0.264144 6 5 ack 40 ------- 2 7.0 1.0 5 14
+ 0.264144 5 1 ack 40 ------- 2 7.0 1.0 5 14
- 0.264144 5 1 ack 40 ------- 2 7.0 1.0 5 14
r 0.264325 1 5 tcp 1040 ------- 2 1.0 7.0 9 15
+ 0.264325 5 6 tcp 1040 ------- 2 1.0 7.0 9 15
- 0.265296 5 6 tcp 1040 ------- 2 1.0 7.0 8 13
r 0.265413 6 7 tcp 1040 ------- 2 1.0 7.0 6 9
+ 0.265413 7 6 ack 40 ------- 2 7.0 1.0 6 17
- 0.265413 7 6 ack 40 ------- 2 7.0 1.0 6 17
r 0.265989 1 5 tcp 1040 ------- 2 1.0 7.0 10 16
+ 0.265989 5 6 tcp 1040 ------- 2 1.0 7.0 10 16
r 0.266208 5 1 ack 40 ------- 2 7.0 1.0 5 14
+ 0.266208 1 5 tcp 1040 ------- 2 1.0 7.0 11 18
- 0.266208 1 5 tcp 1040 ------- 2 1.0 7.0 11 18
+ 0.266208 1 5 tcp 1040 ------- 2 1.0 7.0 12 19
r 0.267296 5 6 tcp 1040 ------- 2 1.0 7.0 7 12
+ 0.267296 6 7 tcp 1040 ------- 2 1.0 7.0 7 12
- 0.267296 6 7 tcp 1040 ------- 2 1.0 7.0 7 12
r 0.267477 7 6 ack 40 ------- 2 7.0 1.0 6 17
+ 0.267477 6 5 ack 40 ------- 2 7.0 1.0 6 17
- 0.267477 6 5 ack 40 ------- 2 7.0 1.0 6 17
- 0.267872 1 5 tcp 1040 ------- 2 1.0 7.0 12 19
r 0.269691 6 5 ack 40 ------- 2 7.0 1.0 6 17
+ 0.269691 5 1 ack 40 ------- 2 7.0 1.0 6 17
- 0.269691 5 1 ack 40 ------- 2 7.0 1.0 6 17
r 0.269872 1 5 tcp 1040 ------- 2 1.0 7.0 11 18
+ 0.269872 5 6 tcp 1040 ------- 2 1.0 7.0 11 18
- 0.270843 5 6 tcp 1040 ------- 2 1.0 7.0 9 15
r 0.27096 6 7 tcp 1040 ------- 2 1.0 7.0 7 12
+ 0.27096 7 6 ack 40 ------- 2 7.0 1.0 7 20
- 0.27096 7 6 ack 40 ------- 2 7.0 1.0 7 20
r 0.271536 1 5 tcp 1040 ------- 2 1.0 7.0 12 19
+ 0.271536 5 6 tcp 1040 ------- 2 1.0 7.0 12 19
r 0.271755 5 1 ack 40 ------- 2 7.0 1.0 6 17
+ 0.271755 1 5 tcp 1040 ------- 2 1.0 7.0 13 21
- 0.271755 1 5 tcp 1040 ------- 2 1.0 7.0 13 21
+ 0.271755 1 5 tcp 1040 ------- 2 1.0 7.0 14 22
r 0.272843 5 6 tcp 1040 ------- 2 1.0 7.0 8 13
+ 0.272843 6 7 tcp 1040 ------- 2 1.0 7.0 8 13
- 0.272843 6 7 tcp 1040 ------- 2 1.0 7.0 8 13
r 0.273024 7 6 ack 40 ------- 2 7.0 1.0 7 20
+ 0.273024 6 5 ack 40 ------- 2 7.0 1.0 7 20
- 0.273024 6 5 ack 40 ------- 2 7.0 1.0 7 20
- 0.273419 1 5 tcp 1040 ------- 2 1.0 7.0 14 22
r 0.275237 6 5 ack 40 ------- 2 7.0 1.0 7 20
+ 0.275237 5 1 ack 40 ------- 2 7.0 1.0 7 20
- 0.275237 5 1 ack 40 ------- 2 7.0 1.0 7 20
r 0.275419 1 5 tcp 1040 ------- 2 1.0 7.0 13 21
+ 0.275419 5 6 tcp 1040 ------- 2 1.0 7.0 13 21
- 0.276389 5 6 tcp 1040 ------- 2 1.0 7.0 10 16
r 0.276507 6 7 tcp 1040 ------- 2 1.0 7.0 8 13
+ 0.276507 7 6 ack 40 ------- 2 7.0 1.0 8 23
- 0.276507 7 6 ack 40 ------- 2 7.0 1.0 8 23
r 0.277083 1 5 tcp 1040 ------- 2 1.0 7.0 14 22
+ 0.277083 5 6 tcp 1040 ------- 2 1.0 7.0 14 22
r 0.277301 5 1 ack 40 ------- 2 7.0 1.0 7 20
+ 0.277301 1 5 tcp 1040 ------- 2 1.0 7.0 15 24
- 0.277301 1 5 tcp 1040 ------- 2 1.0 7.0 15 24
+ 0.277301 1 5 tcp 1040 ------- 2 1.0 7.0 16 25
r 0.278389 5 6 tcp 1040 ------- 2 1.0 7.0 9 15
+ 0.278389 6 7 tcp 1040 ------- 2 1.0 7.0 9 15
- 0.278389 6 7 tcp 1040 ------- 2 1.0 7.0 9 15
r 0.278571 7 6 ack 40 ------- 2 7.0 1.0 8 23
+ 0.278571 6 5 ack 40 ------- 2 7.0 1.0 8 23
- 0.278571 6 5 ack 40 ------- 2 7.0 1.0 8 23
- 0.278965 1 5 tcp 1040 ------- 2 1.0 7.0 16 25
r 0.280784 6 5 ack 40 ------- 2 7.0 1.0 8 23
+ 0.280784 5 1 ack 40 ------- 2 7.0 1.0 8 23
- 0.280784 5 1 ack 40 ------- 2 7.0 1.0 8 23
r 0.280965 1 5 tcp 1040 ------- 2 1.0 7.0 15 24
+ 0.280965 5 6 tcp 1040 ------- 2 1.0 7.0 15 24
- 0.281936 5 6 tcp 1040 ------- 2 1.0 7.0 11 18
r 0.282053 6 7 tcp 1040 ------- 2 1.0 7.0 9 15
+ 0.282053 7 6 ack 40 ------- 2 7.0 1.0 9 26
- 0.282053 7 6 ack 40 ------- 2 7.0 1.0 9 26
r 0.282629 1 5 tcp 1040 ------- 2 1.0 7.0 16 25
+ 0.282629 5 6 tcp 1040 ------- 2 1.0 7.0 16 25
r 0.282848 5 1 ack 40 ------- 2 7.0 1.0 8 23
+ 0.282848 1 5 tcp 1040 ------- 2 1.0 7.0 17 27
- 0.282848 1 5 tcp 1040 ------- 2 1.0 7.0 17 27
+ 0.282848 1 5 tcp 1040 ------- 2 1.0 7.0 18 28
r 0.283936 5 6 tcp 1040 ------- 2 1.0 7.0 10 16
+ 0.283936 6 7 tcp 1040 ------- 2 1.0 7.0 10 16
- 0.283936 6 7 tcp 1040 ------- 2 1.0 7.0 10 16
r 0.284117 7 6 ack 40 ------- 2 7.0 1.0 9 26
+ 0.284117 6 5 ack 40 ------- 2 7.0 1.0 9 26
- 0.284117 6 5 ack 40 ------- 2 7.0 1.0 9 26
- 0.284512 1 5 tcp 1040 ------- 2 1.0 7.0 18 28
r 0.286331 6 5 ack 40 ------- 2 7.0 1.0 9 26
+ 0.286331 5 1 ack 40 ------- 2 7.0 1.0 9 26
- 0.286331 5 1 ack 40 ------- 2 7.0 1.0 9 26
r 0.286512 1 5 tcp 1040 ------- 2 1.0 7.0 17 27
+ 0.286512 5 6 tcp 1040 ------- 2 1.0 7.0 17 27
- 0.287483 5 6 tcp 1040 ------- 2 1.0 7.0 12 19
r 0.2876 6 7 tcp 1040 ------- 2 1.0 7.0 10 16
+ 0.2876 7 6 ack 40 ------- 2 7.0 1.0 10 29
- 0.2876 7 6 ack 40 ------- 2 7.0 1.0 10 29
r 0.288176 1 5 tcp 1040 ------- 2 1.0 7.0 18 28
+ 0.288176 5 6 tcp 1040 ------- 2 1.0 7.0 18 28
r 0.288395 5 1 ack 40 ------- 2 7.0 1.0 9 26
+ 0.288395 1 5 tcp 1040 ------- 2 1.0 7.0 19 30
- 0.288395 1 5 tcp 1040 ------- 2 1.0 7.0 19 30
+ 0.288395 1 5 tcp 1040 ------- 2 1.0 7.0 20 31
r 0.289483 5 6 tcp 1040 ------- 2 1.0 7.0 11 18
+ 0.289483 6 7 tcp 1040 ------- 2 1.0 7.0 11 18
- 0.289483 6 7 tcp 1040 ------- 2 1.0 7.0 11 18
r 0.289664 7 6 ack 40 ------- 2 7.0 1.0 10 29
+ 0.289664 6 5 ack 40 ------- 2 7.0 1.0 10 29
- 0.289664 6 5 ack 40 ------- 2 7.0 1.0 10 29
- 0.290059 1 5 tcp 1040 ------- 2 1.0 7.0 20 31
r 0.291877 6 5 ack 40 ------- 2 7.0 1.0 10 29
+ 0.291877 5 1 ack 40 ------- 2 7.0 1.0 10 29
- 0.291877 5 1 ack 40 ------- 2 7.0 1.0 10 29
r 0.292059 1 5 tcp 1040 ------- 2 1.0 7.0 19 30
+ 0.292059 5 6 tcp 1040 ------- 2 1.0 7.0 19 30
- 0.293029 5 6 tcp 1040 ------- 2 1.0 7.0 13 21
r 0.293147 6 7 tcp 1040 ------- 2 1.0 7.0 11 18
+ 0.293147 7 6 ack 40 ------- 2 7.0 1.0 11 32
- 0.293147 7 6 ack 40 ------- 2 7.0 1.0 11 32
r 0.293723 1 5 tcp 1040 ------- 2 1.0 7.0 20 31
+ 0.293723 5 6 tcp 1040 ------- 2 1.0 7.0 20 31
r 0.293941 5 1 ack 40 ------- 2 7.0 1.0 10 29
+ 0.293941 1 5 tcp 1040 ------- 2 1.0 7.0 21 33
- 0.293941 1 5 tcp 1040 ------- 2 1.0 7.0 21 33
+ 0.293941 1 5 tcp 1040 ------- 2 1.0 7.0 22 34
r 0.295029 5 6 tcp 1040 ------- 2 1.0 7.0 12 19
+ 0.295029 6 7 tcp 1040 ------- 2 1.0 7.0 12 19
- 0.295029 6 7 tcp 1040 ------- 2 1.0 7.0 12 19
r 0.295211 7 6 ack 40 ------- 2 7.0 1.0 11 32
+ 0.295211 6 5 ack 40 ------- 2 7.0 1.0 11 32
- 0.295211 6 5 ack 40 ------- 2 7.0 1.0 11 32
- 0.295605 1 5 tcp 1040 ------- 2 1.0 7.0 22 34
r 0.297424 6 5 ack 40 ------- 2 7.0 1.0 11 32
+ 0.297424 5 1 ack 40 ------- 2 7.0 1.0 11 32
- 0.297424 5 1 ack 40 ------- 2 7.0 1.0 11 32
r 0.297605 1 5 tcp 1040 ------- 2 1.0 7.0 21 33
+ 0.297605 5 6 tcp 1040 ------- 2 1.0 7.0 21 33
- 0.298576 5 6 tcp 1040 ------- 2 1.0 7.0 14 22
r 0.298693 6 7 tcp 1040 ------- 2 1.0 7.0 12 19
+ 0.298693 7 6 ack 40 ------- 2 7.0 1.0 12 35
- 0.298693 7 6 ack 40 ------- 2 7.0 1.0 12 35
r 0.299269 1 5 tcp 1040 ------- 2 1.0 7.0 22 34
+ 0.299269 5 6 tcp 1040 ------- 2 1.0 7.0 22 34
r 0.299488 5 1 ack 40 ------- 2 7.0 1.0 11 32
+ 0.299488 1 5 tcp 1040 ------- 2 1.0 7.0 23 36
- 0.299488 1 5 tcp 1040 ------- 2 1.0 7.0 23 36
+ 0.299488 1 5 tcp 1040 ------- 2 1.0 7.0 24 37
r 0.300576 5 6 tcp 1040 ------- 2 1.0 7.0 13 21
+ 0.300576 6 7 tcp 1040 ------- 2 1.0 7.0 13 21
- 0.300576 6 7 tcp 1040 ------- 2 1.0 7.0 13 21
r 0.300757 7 6 ack 40 ------- 2 7.0 1.0 12 35
+ 0.300757 6 5 ack 40 ------- 2 7.0 1.0 12 35
- 0.300757 6 5 ack 40 ------- 2 7.0 1.0 12 35
- 0.301152 1 5 tcp 1040 ------- 2 1.0 7.0 24 37
r 0.302971 6 5 ack 40 ------- 2 7.0 1.0 12 35
+ 0.302971 5 1 ack 40 ------- 2 7.0 1.0 12 35
- 0.302971 5 1 ack 40 ------- 2 7.0 1.0 12 35
r 0.303152 1 5 tcp 1040 ------- 2 1.0 7.0 23 36
+ 0.303152 5 6 tcp 1040 ------- 2 1.0 7.0 23 36
- 0.304123 5 6 tcp 1040 ------- 2 1.0 7.0 15 24
r 0.30424 6 7 tcp 1040 ------- 2 1.0 7.0 13 21
+ 0.30424 7 6 ack 40 ------- 2 7.0 1.0 13 38
- 0.30424 7 6 ack 40 ------- 2 7.0 1.0 13 38
r 0.304816 1 5 tcp 1040 ------- 2 1.0 7.0 24 37
+ 0.304816 5 6 tcp 1040 ------- 2 1.0 7.0 24 37
r 0.305035 5 1 ack 40 ------- 2 7.0 1.0 12 35
+ 0.305035 1 5 tcp 1040 ------- 2 1.0 7.0 25 39
- 0.305035 1 5 tcp 1040 ------- 2 1.0 7.0 25 39
+ 0.305035 1 5 tcp 1040 ------- 2 1.0 7.0 26 40
r 0.306123 5 6 tcp 1040 ------- 2 1.0 7.0 14 22
+ 0.306123 6 7 tcp 1040 ------- 2 1.0 7.0 14 22
- 0.306123 6 7 tcp 1040 ------- 2 1.0 7.0 14 22
r 0.306304 7 6 ack 40 ------- 2 7.0 1.0 13 38
+ 0.306304 6 5 ack 40 ------- 2 7.0 1.0 13 38
- 0.306304 6 5 ack 40 ------- 2 7.0 1.0 13 38
- 0.306699 1 5 tcp 1040 ------- 2 1.0 7.0 26 40
r 0.308517 6 5 ack 40 ------- 2 7.0 1.0 13 38
+ 0.308517 5 1 ack 40 ------- 2 7.0 1.0 13 38
- 0.308517 5 1 ack 40 ------- 2 7.0 1.0 13 38
r 0.308699 1 5 tcp 1040 ------- 2 1.0 7.0 25 39
+ 0.308699 5 6 tcp 1040 ------- 2 1.0 7.0 25 39
- 0.309669 5 6 tcp 1040 ------- 2 1.0 7.0 16 25
r 0.309787 6 7 tcp 1040 ------- 2 1.0 7.0 14 22
+ 0.309787 7 6 ack 40 ------- 2 7.0 1.0 14 41
- 0.309787 7 6 ack 40 ------- 2 7.0 1.0 14 41
r 0.310363 1 5 tcp 1040 ------- 2 1.0 7.0 26 40
+ 0.310363 5 6 tcp 1040 ------- 2 1.0 7.0 26 40
r 0.310581 5 1 ack 40 ------- 2 7.0 1.0 13 38
+ 0.310581 1 5 tcp 1040 ------- 2 1.0 7.0 27 42
- 0.310581 1 5 tcp 1040 ------- 2 1.0 7.0 27 42
+ 0.310581 1 5 tcp 1040 ------- 2 1.0 7.0 28 43
r 0.311669 5 6 tcp 1040 ------- 2 1.0 7.0 15 24
+ 0.311669 6 7 tcp 1040 ------- 2 1.0 7.0 15 24
- 0.311669 6 7 tcp 1040 ------- 2 1.0 7.0 15 24
r 0.311851 7 6 ack 40 ------- 2 7.0 1.0 14 41
+ 0.311851 6 5 ack 40 ------- 2 7.0 1.0 14 41
- 0.311851 6 5 ack 40 ------- 2 7.0 1.0 14 41
- 0.312245 1 5 tcp 1040 ------- 2 1.0 7.0 28 43
r 0.314064 6 5 ack 40 ------- 2 7.0 1.0 14 41
+ 0.314064 5 1 ack 40 ------- 2 7.0 1.0 14 41
- 0.314064 5 1 ack 40 ------- 2 7.0 1.0 14 41
r 0.314245 1 5 tcp 1040 ------- 2 1.0 7.0 27 42
+ 0.314245 5 6 tcp 1040 ------- 2 1.0 7.0 27 42
- 0.315216 5 6 tcp 1040 ------- 2 1.0 7.0 17 27
r 0.315333 6 7 tcp 1040 ------- 2 1.0 7.0 15 24
+ 0.315333 7 6 ack 40 ------- 2 7.0 1.0 15 44
- 0.315333 7 6 ack 40 ------- 2 7.0 1.0 15 44
r 0.315909 1 5 tcp 1040 ------- 2 1.0 7.0 28 43
+ 0.315909 5 6 tcp 1040 ------- 2 1.0 7.0 28 43
r 0.316128 5 1 ack 40 ------- 2 7.0 1.0 14 41
+ 0.316128 1 5 tcp 1040 ------- 2 1.0 7.0 29 45
- 0.316128 1 5 tcp 1040 ------- 2 1.0 7.0 29 45
+ 0.316128 1 5 tcp 1040 ------- 2 1.0 7.0 30 46
r 0.317216 5 6 tcp 1040 ------- 2 1.0 7.0 16 25
+ 0.317216 6 7 tcp 1040 ------- 2 1.0 7.0 16 25
- 0.317216 6 7 tcp 1040 ------- 2 1.0 7.0 16 25
r 0.317397 7 6 ack 40 ------- 2 7.0 1.0 15 44
+ 0.317397 6 5 ack 40 ------- 2 7.0 1.0 15 44
- 0.317397 6 5 ack 40 ------- 2 7.0 1.0 15 44
- 0.317792 1 5 tcp 1040 ------- 2 1.0 7.0 30 46
r 0.319611 6 5 ack 40 ------- 2 7.0 1.0 15 44
+ 0.319611 5 1 ack 40 ------- 2 7.0 1.0 15 44
- 0.319611 5 1 ack 40 ------- 2 7.0 1.0 15 44
r 0.319792 1 5 tcp 1040 ------- 2 1.0 7.0 29 45
+ 0.319792 5 6 tcp 1040 ------- 2 1.0 7.0 29 45
- 0.320763 5 6 tcp 1040 ------- 2 1.0 7.0 18 28
r 0.32088 6 7 tcp 1040 ------- 2 1.0 7.0 16 25
+ 0.32088 7 6 ack 40 ------- 2 7.0 1.0 16 47
- 0.32088 7 6 ack 40 ------- 2 7.0 1.0 16 47
r 0.321456 1 5 tcp 1040 ------- 2 1.0 7.0 30 46
+ 0.321456 5 6 tcp 1040 ------- 2 1.0 7.0 30 46
r 0.321675 5 1 ack 40 ------- 2 7.0 1.0 15 44
+ 0.321675 1 5 tcp 1040 ------- 2 1.0 7.0 31 48
- 0.321675 1 5 tcp 1040 ------- 2 1.0 7.0 31 48
+ 0.321675 1 5 tcp 1040 ------- 2 1.0 7.0 32 49
r 0.322763 5 6 tcp 1040 ------- 2 1.0 7.0 17 27
+ 0.322763 6 7 tcp 1040 ------- 2 1.0 7.0 17 27
- 0.322763 6 7 tcp 1040 ------- 2 1.0 7.0 17 27
r 0.322944 7 6 ack 40 ------- 2 7.0 1.0 16 47
+ 0.322944 6 5 ack 40 ------- 2 7.0 1.0 16 47
- 0.322944 6 5 ack 40 ------- 2 7.0 1.0 16 47
- 0.323339 1 5 tcp 1040 ------- 2 1.0 7.0 32 49
r 0.325157 6 5 ack 40 ------- 2 7.0 1.0 16 47
+ 0.325157 5 1 ack 40 ------- 2 7.0 1.0 16 47
- 0.325157 5 1 ack 40 ------- 2 7.0 1.0 16 47
r 0.325339 1 5 tcp 1040 ------- 2 1.0 7.0 31 48
+ 0.325339 5 6 tcp 1040 ------- 2 1.0 7.0 31 48
- 0.326309 5 6 tcp 1040 ------- 2 1.0 7.0 19 30
r 0.326427 6 7 tcp 1040 ------- 2 1.0 7.0 17 27
+ 0.326427 7 6 ack 40 ------- 2 7.0 1.0 17 50
- 0.326427 7 6 ack 40 ------- 2 7.0 1.0 17 50
r 0.327003 1 5 tcp 1040 ------- 2 1.0 7.0 32 49
+ 0.327003 5 6 tcp 1040 ------- 2 1.0 7.0 32 49
r 0.327221 5 1 ack 40 ------- 2 7.0 1.0 16 47
+ 0.327221 1 5 tcp 1040 ------- 2 1.0 7.0 33 51
- 0.327221 1 5 tcp 1040 ------- 2 1.0 7.0 33 51
+ 0.327221 1 5 tcp 1040 ------- 2 1.0 7.0 34 52
r 0.328309 5 6 tcp 1040 ------- 2 1.0 7.0 18 28
+ 0.328309 6 7 tcp 1040 ------- 2 1.0 7.0 18 28
- 0.328309 6 7 tcp 1040 ------- 2 1.0 7.0 18 28
r 0.328491 7 6 ack 40 ------- 2 7.0 1.0 17 50
+ 0.328491 6 5 ack 40 ------- 2 7.0 1.0 17 50
- 0.328491 6 5 ack 40 ------- 2 7.0 1.0 17 50
- 0.328885 1 5 tcp 1040 ------- 2 1.0 7.0 34 52
r 0.330704 6 5 ack 40 ------- 2 7.0 1.0 17 50
+ 0.330704 5 1 ack 40 ------- 2 7.0 1.0 17 50
- 0.330704 5 1 ack 40 ------- 2 7.0 1.0 17 50
r 0.330885 1 5 tcp 1040 ------- 2 1.0 7.0 33 51
+ 0.330885 5 6 tcp 1040 ------- 2 1.0 7.0 33 51
- 0.331856 5 6 tcp 1040 ------- 2 1.0 7.0 20 31
r 0.331973 6 7 tcp 1040 ------- 2 1.0 7.0 18 28
+ 0.331973 7 6 ack 40 ------- 2 7.0 1.0 18 53
- 0.331973 7 6 ack 40 ------- 2 7.0 1.0 18 53
r 0.332549 1 5 tcp 1040 ------- 2 1.0 7.0 34 52
+ 0.332549 5 6 tcp 1040 ------- 2 1.0 7.0 34 52
r 0.332768 5 1 ack 40 ------- 2 7.0 1.0 17 50
+ 0.332768 1 5 tcp 1040 ------- 2 1.0 7.0 35 54
- 0.332768 1 5 tcp 1040 ------- 2 1.0 7.0 35 54
+ 0.332768 1 5 tcp 1040 ------- 2 1.0 7.0 36 55
r 0.333856 5 6 tcp 1040 ------- 2 1.0 7.0 19 30
+ 0.333856 6 7 tcp 1040 ------- 2 1.0 7.0 19 30
- 0.333856 6 7 tcp 1040 ------- 2 1.0 7.0 19 30
r 0.334037 7 6 ack 40 ------- 2 7.0 1.0 18 53
+ 0.334037 6 5 ack 40 ------- 2 7.0 1.0 18 53
- 0.334037 6 5 ack 40 ------- 2 7.0 1.0 18 53
- 0.334432 1 5 tcp 1040 ------- 2 1.0 7.0 36 55
r 0.336251 6 5 ack 40 ------- 2 7.0 1.0 18 53
+ 0.336251 5 1 ack 40 ------- 2 7.0 1.0 18 53
- 0.336251 5 1 ack 40 ------- 2 7.0 1.0 18 53
r 0.336432 1 5 tcp 1040 ------- 2 1.0 7.0 35 54
+ 0.336432 5 6 tcp 1040 ------- 2 1.0 7.0 35 54
- 0.337403 5 6 tcp 1040 ------- 2 1.0 7.0 21 33
r 0.33752 6 7 tcp 1040 ------- 2 1.0 7.0 19 30
+ 0.33752 7 6 ack 40 ------- 2 7.0 1.0 19 56
- 0.33752 7 6 ack 40 ------- 2 7.0 1.0 19 56
r 0.338096 1 5 tcp 1040 ------- 2 1.0 7.0 36 55
+ 0.338096 5 6 tcp 1040 ------- 2 1.0 7.0 36 55
r 0.338315 5 1 ack 40 ------- 2 7.0 1.0 18 53
+ 0.338315 1 5 tcp 1040 ------- 2 1.0 7.0 37 57
- 0.338315 1 5 tcp 1040 ------- 2 1.0 7.0 37 57
+ 0.338315 1 5 tcp 1040 ------- 2 1.0 7.0 38 58
r 0.339403 5 6 tcp 1040 ------- 2 1.0 7.0 20 31
+ 0.339403 6 7 tcp 1040 ------- 2 1.0 7.0 20 31
- 0.339403 6 7 tcp 1040 ------- 2 1.0 7.0 20 31
r 0.339584 7 6 ack 40 ------- 2 7.0 1.0 19 56
+ 0.339584 6 5 ack 40 ------- 2 7.0 1.0 19 56
- 0.339584 6 5 ack 40 ------- 2 7.0 1.0 19 56
- 0.339979 1 5 tcp 1040 ------- 2 1.0 7.0 38 58
r 0.341797 6 5 ack 40 ------- 2 7.0 1.0 19 56
+ 0.341797 5 1 ack 40 ------- 2 7.0 1.0 19 56
- 0.341797 5 1 ack 40 ------- 2 7.0 1.0 19 56
r 0.341979 1 5 tcp 1040 ------- 2 1.0 7.0 37 57
+ 0.341979 5 6 tcp 1040 ------- 2 1.0 7.0 37 57
- 0.342949 5 6 tcp 1040 ------- 2 1.0 7.0 22 34
r 0.343067 6 7 tcp 1040 ------- 2 1.0 7.0 20 31
+ 0.343067 7 6 ack 40 ------- 2 7.0 1.0 20 59
- 0.343067 7 6 ack 40 ------- 2 7.0 1.0 20 59
r 0.343643 1 5 tcp 1040 ------- 2 1.0 7.0 38 58
+ 0.343643 5 6 tcp 1040 ------- 2 1.0 7.0 38 58
r 0.343861 5 1 ack 40 ------- 2 7.0 1.0 19 56
+ 0.343861 1 5 tcp 1040 ------- 2 1.0 7.0 39 60
- 0.343861 1 5 tcp 1040 ------- 2 1.0 7.0 39 60
r 0.344949 5 6 tcp 1040 ------- 2 1.0 7.0 21 33
+ 0.344949 6 7 tcp 1040 ------- 2 1.0 7.0 21 33
- 0.344949 6 7 tcp 1040 ------- 2 1.0 7.0 21 33
r 0.345131 7 6 ack 40 ------- 2 7.0 1.0 20 59
+ 0.345131 6 5 ack 40 ------- 2 7.0 1.0 20 59
- 0.345131 6 5 ack 40 ------- 2 7.0 1.0 20 59
r 0.347344 6 5 ack 40 ------- 2 7.0 1.0 20 59
+ 0.347344 5 1 ack 40 ------- 2 7.0 1.0 20 59
- 0.347344 5 1 ack 40 ------- 2 7.0 1.0 20 59
r 0.347525 1 5 tcp 1040 ------- 2 1.0 7.0 39 60
+ 0.347525 5 6 tcp 1040 ------- 2 1.0 7.0 39 60
- 0.348496 5 6 tcp 1040 ------- 2 1.0 7.0 23 36
r 0.348613 6 7 tcp 1040 ------- 2 1.0 7.0 21 33
+ 0.348613 7 6 ack 40 ------- 2 7.0 1.0 21 61
- 0.348613 7 6 ack 40 ------- 2 7.0 1.0 21 61
r 0.349408 5 1 ack 40 ------- 2 7.0 1.0 20 59
+ 0.349408 1 5 tcp 1040 ------- 2 1.0 7.0 40 62
- 0.349408 1 5 tcp 1040 ------- 2 1.0 7.0 40 62
r 0.350496 5 6 tcp 1040 ------- 2 1.0 7.0 22 34
+ 0.350496 6 7 tcp 1040 ------- 2 1.0 7.0 22 34
- 0.350496 6 7 tcp 1040 ------- 2 1.0 7.0 22 34
r 0.350677 7 6 ack 40 ------- 2 7.0 1.0 21 61
+ 0.350677 6 5 ack 40 ------- 2 7.0 1.0 21 61
- 0.350677 6 5 ack 40 ------- 2 7.0 1.0 21 61
r 0.352891 6 5 ack 40 ------- 2 7.0 1.0 21 61
+ 0.352891 5 1 ack 40 ------- 2 7.0 1.0 21 61
- 0.352891 5 1 ack 40 ------- 2 7.0 1.0 21 61
r 0.353072 1 5 tcp 1040 ------- 2 1.0 7.0 40 62
+ 0.353072 5 6 tcp 1040 ------- 2 1.0 7.0 40 62
- 0.354043 5 6 tcp 1040 ------- 2 1.0 7.0 24 37
r 0.35416 6 7 tcp 1040 ------- 2 1.0 7.0 22 34
+ 0.35416 7 6 ack 40 ------- 2 7.0 1.0 22 63
- 0.35416 7 6 ack 40 ------- 2 7.0 1.0 22 63
r 0.354955 5 1 ack 40 ------- 2 7.0 1.0 21 61
+ 0.354955 1 5 tcp 1040 ------- 2 1.0 7.0 41 64
- 0.354955 1 5 tcp 1040 ------- 2 1.0 7.0 41 64
r 0.356043 5 6 tcp 1040 ------- 2 1.0 7.0 23 36
+ 0.356043 6 7 tcp 1040 ------- 2 1.0 7.0 23 36
- 0.356043 6 7 tcp 1040 ------- 2 1.0 7.0 23 36
r 0.356224 7 6 ack 40 ------- 2 7.0 1.0 22 63
+ 0.356224 6 5 ack 40 ------- 2 7.0 1.0 22 63
- 0.356224 6 5 ack 40 ------- 2 7.0 1.0 22 63
r 0.358437 6 5 ack 40 ------- 2 7.0 1.0 22 63
+ 0.358437 5 1 ack 40 ------- 2 7.0 1.0 22 63
- 0.358437 5 1 ack 40 ------- 2 7.0 1.0 22 63
r 0.358619 1 5 tcp 1040 ------- 2 1.0 7.0 41 64
+ 0.358619 5 6 tcp 1040 ------- 2 1.0 7.0 41 64
- 0.359589 5 6 tcp 1040 ------- 2 1.0 7.0 25 39
r 0.359707 6 7 tcp 1040 ------- 2 1.0 7.0 23 36
+ 0.359707 7 6 ack 40 ------- 2 7.0 1.0 23 65
- 0.359707 7 6 ack 40 ------- 2 7.0 1.0 23 65
r 0.360501 5 1 ack 40 ------- 2 7.0 1.0 22 63
+ 0.360501 1 5 tcp 1040 ------- 2 1.0 7.0 42 66
- 0.360501 1 5 tcp 1040 ------- 2 1.0 7.0 42 66
r 0.361589 5 6 tcp 1040 ------- 2 1.0 7.0 24 37
+ 0.361589 6 7 tcp 1040 ------- 2 1.0 7.0 24 37
- 0.361589 6 7 tcp 1040 ------- 2 1.0 7.0 24 37
r 0.361771 7 6 ack 40 ------- 2 7.0 1.0 23 65
+ 0.361771 6 5 ack 40 ------- 2 7.0 1.0 23 65
- 0.361771 6 5 ack 40 ------- 2 7.0 1.0 23 65
r 0.363984 6 5 ack 40 ------- 2 7.0 1.0 23 65
+ 0.363984 5 1 ack 40 ------- 2 7.0 1.0 23 65
- 0.363984 5 1 ack 40 ------- 2 7.0 1.0 23 65
r 0.364165 1 5 tcp 1040 ------- 2 1.0 7.0 42 66
+ 0.364165 5 6 tcp 1040 ------- 2 1.0 7.0 42 66
- 0.365136 5 6 tcp 1040 ------- 2 1.0 7.0 26 40
r 0.365253 6 7 tcp 1040 ------- 2 1.0 7.0 24 37
+ 0.365253 7 6 ack 40 ------- 2 7.0 1.0 24 67
- 0.365253 7 6 ack 40 ------- 2 7.0 1.0 24 67
r 0.366048 5 1 ack 40 ------- 2 7.0 1.0 23 65
+ 0.366048 1 5 tcp 1040 ------- 2 1.0 7.0 43 68
- 0.366048 1 5 tcp 1040 ------- 2 1.0 7.0 43 68
r 0.367136 5 6 tcp 1040 ------- 2 1.0 7.0 25 39
+ 0.367136 6 7 tcp 1040 ------- 2 1.0 7.0 25 39
- 0.367136 6 7 tcp 1040 ------- 2 1.0 7.0 25 39
r 0.367317 7 6 ack 40 ------- 2 7.0 1.0 24 67
+ 0.367317 6 5 ack 40 ------- 2 7.0 1.0 24 67
- 0.367317 6 5 ack 40 ------- 2 7.0 1.0 24 67
r 0.369531 6 5 ack 40 ------- 2 7.0 1.0 24 67
+ 0.369531 5 1 ack 40 ------- 2 7.0 1.0 24 67
- 0.369531 5 1 ack 40 ------- 2 7.0 1.0 24 67
r 0.369712 1 5 tcp 1040 ------- 2 1.0 7.0 43 68
+ 0.369712 5 6 tcp 1040 ------- 2 1.0 7.0 43 68
- 0.370683 5 6 tcp 1040 ------- 2 1.0 7.0 27 42
r 0.3708 6 7 tcp 1040 ------- 2 1.0 7.0 25 39
+ 0.3708 7 6 ack 40 ------- 2 7.0 1.0 25 69
- 0.3708 7 6 ack 40 ------- 2 7.0 1.0 25 69
r 0.371595 5 1 ack 40 ------- 2 7.0 1.0 24 67
+ 0.371595 1 5 tcp 1040 ------- 2 1.0 7.0 44 70
- 0.371595 1 5 tcp 1040 ------- 2 1.0 7.0 44 70
r 0.372683 5 6 tcp 1040 ------- 2 1.0 7.0 26 40
+ 0.372683 6 7 tcp 1040 ------- 2 1.0 7.0 26 40
- 0.372683 6 7 tcp 1040 ------- 2 1.0 7.0 26 40
r 0.372864 7 6 ack 40 ------- 2 7.0 1.0 25 69
+ 0.372864 6 5 ack 40 ------- 2 7.0 1.0 25 69
- 0.372864 6 5 ack 40 ------- 2 7.0 1.0 25 69
r 0.375077 6 5 ack 40 ------- 2 7.0 1.0 25 69
+ 0.375077 5 1 ack 40 ------- 2 7.0 1.0 25 69
- 0.375077 5 1 ack 40 ------- 2 7.0 1.0 25 69
r 0.375259 1 5 tcp 1040 ------- 2 1.0 7.0 44 70
+ 0.375259 5 6 tcp 1040 ------- 2 1.0 7.0 44 70
- 0.376229 5 6 tcp 1040 ------- 2 1.0 7.0 28 43
r 0.376347 6 7 tcp 1040 ------- 2 1.0 7.0 26 40
+ 0.376347 7 6 ack 40 ------- 2 7.0 1.0 26 71
- 0.376347 7 6 ack 40 ------- 2 7.0 1.0 26 71
r 0.377141 5 1 ack 40 ------- 2 7.0 1.0 25 69
+ 0.377141 1 5 tcp 1040 ------- 2 1.0 7.0 45 72
- 0.377141 1 5 tcp 1040 ------- 2 1.0 7.0 45 72
r 0.378229 5 6 tcp 1040 ------- 2 1.0 7.0 27 42
+ 0.378229 6 7 tcp 1040 ------- 2 1.0 7.0 27 42
- 0.378229 6 7 tcp 1040 ------- 2 1.0 7.0 27 42
r 0.378411 7 6 ack 40 ------- 2 7.0 1.0 26 71
+ 0.378411 6 5 ack 40 ------- 2 7.0 1.0 26 71
- 0.378411 6 5 ack 40 ------- 2 7.0 1.0 26 71
r 0.380624 6 5 ack 40 ------- 2 7.0 1.0 26 71
+ 0.380624 5 1 ack 40 ------- 2 7.0 1.0 26 71
- 0.380624 5 1 ack 40 ------- 2 7.0 1.0 26 71
r 0.380805 1 5 tcp 1040 ------- 2 1.0 7.0 45 72
+ 0.380805 5 6 tcp 1040 ------- 2 1.0 7.0 45 72
- 0.381776 5 6 tcp 1040 ------- 2 1.0 7.0 29 45
r 0.381893 6 7 tcp 1040 ------- 2 1.0 7.0 27 42
+ 0.381893 7 6 ack 40 ------- 2 7.0 1.0 27 73
- 0.381893 7 6 ack 40 ------- 2 7.0 1.0 27 73
r 0.382688 5 1 ack 40 ------- 2 7.0 1.0 26 71
+ 0.382688 1 5 tcp 1040 ------- 2 1.0 7.0 46 74
- 0.382688 1 5 tcp 1040 ------- 2 1.0 7.0 46 74
r 0.383776 5 6 tcp 1040 ------- 2 1.0 7.0 28 43
+ 0.383776 6 7 tcp 1040 ------- 2 1.0 7.0 28 43
- 0.383776 6 7 tcp 1040 ------- 2 1.0 7.0 28 43
r 0.383957 7 6 ack 40 ------- 2 7.0 1.0 27 73
+ 0.383957 6 5 ack 40 ------- 2 7.0 1.0 27 73
- 0.383957 6 5 ack 40 ------- 2 7.0 1.0 27 73
r 0.386171 6 5 ack 40 ------- 2 7.0 1.0 27 73
+ 0.386171 5 1 ack 40 ------- 2 7.0 1.0 27 73
- 0.386171 5 1 ack 40 ------- 2 7.0 1.0 27 73
r 0.386352 1 5 tcp 1040 ------- 2 1.0 7.0 46 74
+ 0.386352 5 6 tcp 1040 ------- 2 1.0 7.0 46 74
- 0.387323 5 6 tcp 1040 ------- 2 1.0 7.0 30 46
r 0.38744 6 7 tcp 1040 ------- 2 1.0 7.0 28 43
+ 0.38744 7 6 ack 40 ------- 2 7.0 1.0 28 75
- 0.38744 7 6 ack 40 ------- 2 7.0 1.0 28 75
r 0.388235 5 1 ack 40 ------- 2 7.0 1.0 27 73
+ 0.388235 1 5 tcp 1040 ------- 2 1.0 7.0 47 76
- 0.388235 1 5 tcp 1040 ------- 2 1.0 7.0 47 76
r 0.389323 5 6 tcp 1040 ------- 2 1.0 7.0 29 45
+ 0.389323 6 7 tcp 1040 ------- 2 1.0 7.0 29 45
- 0.389323 6 7 tcp 1040 ------- 2 1.0 7.0 29 45
r 0.389504 7 6 ack 40 ------- 2 7.0 1.0 28 75
+ 0.389504 6 5 ack 40 ------- 2 7.0 1.0 28 75
- 0.389504 6 5 ack 40 ------- 2 7.0 1.0 28 75
r 0.391717 6 5 ack 40 ------- 2 7.0 1.0 28 75
+ 0.391717 5 1 ack 40 ------- 2 7.0 1.0 28 75
- 0.391717 5 1 ack 40 ------- 2 7.0 1.0 28 75
r 0.391899 1 5 tcp 1040 ------- 2 1.0 7.0 47 76
+ 0.391899 5 6 tcp 1040 ------- 2 1.0 7.0 47 76
- 0.392869 5 6 tcp 1040 ------- 2 1.0 7.0 31 48
r 0.392987 6 7 tcp 1040 ------- 2 1.0 7.0 29 45
+ 0.392987 7 6 ack 40 ------- 2 7.0 1.0 29 77
- 0.392987 7 6 ack 40 ------- 2 7.0 1.0 29 77
r 0.393781 5 1 ack 40 ------- 2 7.0 1.0 28 75
+ 0.393781 1 5 tcp 1040 ------- 2 1.0 7.0 48 78
- 0.393781 1 5 tcp 1040 ------- 2 1.0 7.0 48 78
r 0.394869 5 6 tcp 1040 ------- 2 1.0 7.0 30 46
+ 0.394869 6 7 tcp 1040 ------- 2 1.0 7.0 30 46
- 0.394869 6 7 tcp 1040 ------- 2 1.0 7.0 30 46
r 0.395051 7 6 ack 40 ------- 2 7.0 1.0 29 77
+ 0.395051 6 5 ack 40 ------- 2 7.0 1.0 29 77
- 0.395051 6 5 ack 40 ------- 2 7.0 1.0 29 77
r 0.397264 6 5 ack 40 ------- 2 7.0 1.0 29 77
+ 0.397264 5 1 ack 40 ------- 2 7.0 1.0 29 77
- 0.397264 5 1 ack 40 ------- 2 7.0 1.0 29 77
r 0.397445 1 5 tcp 1040 ------- 2 1.0 7.0 48 78
+ 0.397445 5 6 tcp 1040 ------- 2 1.0 7.0 48 78
- 0.398416 5 6 tcp 1040 ------- 2 1.0 7.0 32 49
r 0.398533 6 7 tcp 1040 ------- 2 1.0 7.0 30 46
+ 0.398533 7 6 ack 40 ------- 2 7.0 1.0 30 79
- 0.398533 7 6 ack 40 ------- 2 7.0 1.0 30 79
r 0.399328 5 1 ack 40 ------- 2 7.0 1.0 29 77
+ 0.399328 1 5 tcp 1040 ------- 2 1.0 7.0 49 80
- 0.399328 1 5 tcp 1040 ------- 2 1.0 7.0 49 80
r 0.400416 5 6 tcp 1040 ------- 2 1.0 7.0 31 48
+ 0.400416 6 7 tcp 1040 ------- 2 1.0 7.0 31 48
- 0.400416 6 7 tcp 1040 ------- 2 1.0 7.0 31 48
r 0.400597 7 6 ack 40 ------- 2 7.0 1.0 30 79
+ 0.400597 6 5 ack 40 ------- 2 7.0 1.0 30 79
- 0.400597 6 5 ack 40 ------- 2 7.0 1.0 30 79
r 0.402811 6 5 ack 40 ------- 2 7.0 1.0 30 79
+ 0.402811 5 1 ack 40 ------- 2 7.0 1.0 30 79
- 0.402811 5 1 ack 40 ------- 2 7.0 1.0 30 79
r 0.402992 1 5 tcp 1040 ------- 2 1.0 7.0 49 80
+ 0.402992 5 6 tcp 1040 ------- 2 1.0 7.0 49 80
- 0.403963 5 6 tcp 1040 ------- 2 1.0 7.0 33 51
r 0.40408 6 7 tcp 1040 ------- 2 1.0 7.0 31 48
+ 0.40408 7 6 ack 40 ------- 2 7.0 1.0 31 81
- 0.40408 7 6 ack 40 ------- 2 7.0 1.0 31 81
r 0.404875 5 1 ack 40 ------- 2 7.0 1.0 30 79