+ 0.1 1 2 cbr 1000 ------- 2 1.0 5.0 0 0
- 0.1 1 2 cbr 1000 ------- 2 1.0 5.0 0 0
+ 0.1 1 2 cbr 24 ------- 2 1.0 5.0 1 1
- 0.104 1 2 cbr 24 ------- 2 1.0 5.0 1 1
r 0.114 1 2 cbr 1000 ------- 2 1.0 5.0 0 0
+ 0.114 2 3 cbr 1000 ------- 2 1.0 5.0 0 0
- 0.114 2 3 cbr 1000 ------- 2 1.0 5.0 0 0
r 0.114096 1 2 cbr 24 ------- 2 1.0 5.0 1 1
+ 0.114096 2 3 cbr 24 ------- 2 1.0 5.0 1 1
- 0.140667 2 3 cbr 24 ------- 2 1.0 5.0 1 1
r 0.240667 2 3 cbr 1000 ------- 2 1.0 5.0 0 0
+ 0.240667 3 5 cbr 1000 ------- 2 1.0 5.0 0 0
- 0.240667 3 5 cbr 1000 ------- 2 1.0 5.0 0 0
r 0.241307 2 3 cbr 24 ------- 2 1.0 5.0 1 1
+ 0.241307 3 5 cbr 24 ------- 2 1.0 5.0 1 1
- 0.256667 3 5 cbr 24 ------- 2 1.0 5.0 1 1
r 0.296667 3 5 cbr 1000 ------- 2 1.0 5.0 0 0
r 0.297051 3 5 cbr 24 ------- 2 1.0 5.0 1 1
+ 0.9192 1 2 cbr 1000 ------- 2 1.0 5.0 2 2
- 0.9192 1 2 cbr 1000 ------- 2 1.0 5.0 2 2
+ 0.9192 1 2 cbr 24 ------- 2 1.0 5.0 3 3
- 0.9232 1 2 cbr 24 ------- 2 1.0 5.0 3 3
r 0.9332 1 2 cbr 1000 ------- 2 1.0 5.0 2 2
+ 0.9332 2 3 cbr 1000 ------- 2 1.0 5.0 2 2
- 0.9332 2 3 cbr 1000 ------- 2 1.0 5.0 2 2
r 0.933296 1 2 cbr 24 ------- 2 1.0 5.0 3 3
+ 0.933296 2 3 cbr 24 ------- 2 1.0 5.0 3 3
- 0.959867 2 3 cbr 24 ------- 2 1.0 5.0 3 3
+ 1 0 2 tcp 40 ------- 1 0.0 4.0 0 4
- 1 0 2 tcp 40 ------- 1 0.0 4.0 0 4
r 1.01016 0 2 tcp 40 ------- 1 0.0 4.0 0 4
+ 1.01016 2 3 tcp 40 ------- 1 0.0 4.0 0 4
- 1.01016 2 3 tcp 40 ------- 1 0.0 4.0 0 4
r 1.059867 2 3 cbr 1000 ------- 2 1.0 5.0 2 2
+ 1.059867 3 5 cbr 1000 ------- 2 1.0 5.0 2 2
- 1.059867 3 5 cbr 1000 ------- 2 1.0 5.0 2 2
r 1.060507 2 3 cbr 24 ------- 2 1.0 5.0 3 3
+ 1.060507 3 5 cbr 24 ------- 2 1.0 5.0 3 3
- 1.075867 3 5 cbr 24 ------- 2 1.0 5.0 3 3
r 1.111227 2 3 tcp 40 ------- 1 0.0 4.0 0 4
+ 1.111227 3 4 tcp 40 ------- 1 0.0 4.0 0 4
- 1.111227 3 4 tcp 40 ------- 1 0.0 4.0 0 4
r 1.115867 3 5 cbr 1000 ------- 2 1.0 5.0 2 2
r 1.116251 3 5 cbr 24 ------- 2 1.0 5.0 3 3
r 1.151867 3 4 tcp 40 ------- 1 0.0 4.0 0 4
+ 1.151867 4 3 ack 40 ------- 1 4.0 0.0 0 5
- 1.151867 4 3 ack 40 ------- 1 4.0 0.0 0 5
r 1.192507 4 3 ack 40 ------- 1 4.0 0.0 0 5
+ 1.192507 3 2 ack 40 ------- 1 4.0 0.0 0 5
- 1.192507 3 2 ack 40 ------- 1 4.0 0.0 0 5
r 1.293573 3 2 ack 40 ------- 1 4.0 0.0 0 5
+ 1.293573 2 0 ack 40 ------- 1 4.0 0.0 0 5
- 1.293573 2 0 ack 40 ------- 1 4.0 0.0 0 5
r 1.303733 2 0 ack 40 ------- 1 4.0 0.0 0 5
+ 1.303733 0 2 tcp 552 ------- 1 0.0 4.0 1 6
- 1.303733 0 2 tcp 552 ------- 1 0.0 4.0 1 6
+ 1.303733 0 2 tcp 552 ------- 1 0.0 4.0 2 7
- 1.305941 0 2 tcp 552 ------- 1 0.0 4.0 2 7
r 1.315941 0 2 tcp 552 ------- 1 0.0 4.0 1 6
+ 1.315941 2 3 tcp 552 ------- 1 0.0 4.0 1 6
- 1.315941 2 3 tcp 552 ------- 1 0.0 4.0 1 6
r 1.318149 0 2 tcp 552 ------- 1 0.0 4.0 2 7
+ 1.318149 2 3 tcp 552 ------- 1 0.0 4.0 2 7
- 1.330661 2 3 tcp 552 ------- 1 0.0 4.0 2 7
r 1.430661 2 3 tcp 552 ------- 1 0.0 4.0 1 6
+ 1.430661 3 4 tcp 552 ------- 1 0.0 4.0 1 6
- 1.430661 3 4 tcp 552 ------- 1 0.0 4.0 1 6
r 1.445381 2 3 tcp 552 ------- 1 0.0 4.0 2 7
+ 1.445381 3 4 tcp 552 ------- 1 0.0 4.0 2 7
- 1.445381 3 4 tcp 552 ------- 1 0.0 4.0 2 7
r 1.479493 3 4 tcp 552 ------- 1 0.0 4.0 1 6
r 1.494213 3 4 tcp 552 ------- 1 0.0 4.0 2 7
+ 1.494213 4 3 ack 40 ------- 1 4.0 0.0 2 8
- 1.494213 4 3 ack 40 ------- 1 4.0 0.0 2 8
r 1.534853 4 3 ack 40 ------- 1 4.0 0.0 2 8
+ 1.534853 3 2 ack 40 ------- 1 4.0 0.0 2 8
- 1.534853 3 2 ack 40 ------- 1 4.0 0.0 2 8
r 1.63592 3 2 ack 40 ------- 1 4.0 0.0 2 8
+ 1.63592 2 0 ack 40 ------- 1 4.0 0.0 2 8
- 1.63592 2 0 ack 40 ------- 1 4.0 0.0 2 8
r 1.64608 2 0 ack 40 ------- 1 4.0 0.0 2 8
+ 1.64608 0 2 tcp 552 ------- 1 0.0 4.0 3 9
- 1.64608 0 2 tcp 552 ------- 1 0.0 4.0 3 9
+ 1.64608 0 2 tcp 552 ------- 1 0.0 4.0 4 10
+ 1.64608 0 2 tcp 552 ------- 1 0.0 4.0 5 11
- 1.648288 0 2 tcp 552 ------- 1 0.0 4.0 4 10
- 1.650496 0 2 tcp 552 ------- 1 0.0 4.0 5 11
r 1.658288 0 2 tcp 552 ------- 1 0.0 4.0 3 9
+ 1.658288 2 3 tcp 552 ------- 1 0.0 4.0 3 9
- 1.658288 2 3 tcp 552 ------- 1 0.0 4.0 3 9
r 1.660496 0 2 tcp 552 ------- 1 0.0 4.0 4 10
+ 1.660496 2 3 tcp 552 ------- 1 0.0 4.0 4 10
r 1.662704 0 2 tcp 552 ------- 1 0.0 4.0 5 11
+ 1.662704 2 3 tcp 552 ------- 1 0.0 4.0 5 11
- 1.673008 2 3 tcp 552 ------- 1 0.0 4.0 4 10
- 1.687728 2 3 tcp 552 ------- 1 0.0 4.0 5 11
+ 1.7384 1 2 cbr 1000 ------- 2 1.0 5.0 4 12
- 1.7384 1 2 cbr 1000 ------- 2 1.0 5.0 4 12
+ 1.7384 1 2 cbr 24 ------- 2 1.0 5.0 5 13
- 1.7424 1 2 cbr 24 ------- 2 1.0 5.0 5 13
r 1.7524 1 2 cbr 1000 ------- 2 1.0 5.0 4 12
+ 1.7524 2 3 cbr 1000 ------- 2 1.0 5.0 4 12
- 1.7524 2 3 cbr 1000 ------- 2 1.0 5.0 4 12
r 1.752496 1 2 cbr 24 ------- 2 1.0 5.0 5 13
+ 1.752496 2 3 cbr 24 ------- 2 1.0 5.0 5 13
r 1.773008 2 3 tcp 552 ------- 1 0.0 4.0 3 9
+ 1.773008 3 4 tcp 552 ------- 1 0.0 4.0 3 9
- 1.773008 3 4 tcp 552 ------- 1 0.0 4.0 3 9
- 1.779067 2 3 cbr 24 ------- 2 1.0 5.0 5 13
r 1.787728 2 3 tcp 552 ------- 1 0.0 4.0 4 10
+ 1.787728 3 4 tcp 552 ------- 1 0.0 4.0 4 10
- 1.787728 3 4 tcp 552 ------- 1 0.0 4.0 4 10
r 1.802448 2 3 tcp 552 ------- 1 0.0 4.0 5 11
+ 1.802448 3 4 tcp 552 ------- 1 0.0 4.0 5 11
- 1.802448 3 4 tcp 552 ------- 1 0.0 4.0 5 11
r 1.82184 3 4 tcp 552 ------- 1 0.0 4.0 3 9
r 1.83656 3 4 tcp 552 ------- 1 0.0 4.0 4 10
+ 1.83656 4 3 ack 40 ------- 1 4.0 0.0 4 14
- 1.83656 4 3 ack 40 ------- 1 4.0 0.0 4 14
r 1.85128 3 4 tcp 552 ------- 1 0.0 4.0 5 11
r 1.8772 4 3 ack 40 ------- 1 4.0 0.0 4 14
+ 1.8772 3 2 ack 40 ------- 1 4.0 0.0 4 14
- 1.8772 3 2 ack 40 ------- 1 4.0 0.0 4 14
r 1.879067 2 3 cbr 1000 ------- 2 1.0 5.0 4 12
+ 1.879067 3 5 cbr 1000 ------- 2 1.0 5.0 4 12
- 1.879067 3 5 cbr 1000 ------- 2 1.0 5.0 4 12
r 1.879707 2 3 cbr 24 ------- 2 1.0 5.0 5 13
+ 1.879707 3 5 cbr 24 ------- 2 1.0 5.0 5 13
- 1.895067 3 5 cbr 24 ------- 2 1.0 5.0 5 13
r 1.935067 3 5 cbr 1000 ------- 2 1.0 5.0 4 12
r 1.935451 3 5 cbr 24 ------- 2 1.0 5.0 5 13
+ 1.95128 4 3 ack 40 ------- 1 4.0 0.0 5 15
- 1.95128 4 3 ack 40 ------- 1 4.0 0.0 5 15
r 1.978267 3 2 ack 40 ------- 1 4.0 0.0 4 14
+ 1.978267 2 0 ack 40 ------- 1 4.0 0.0 4 14
- 1.978267 2 0 ack 40 ------- 1 4.0 0.0 4 14
r 1.988427 2 0 ack 40 ------- 1 4.0 0.0 4 14
+ 1.988427 0 2 tcp 552 ------- 1 0.0 4.0 6 16
- 1.988427 0 2 tcp 552 ------- 1 0.0 4.0 6 16
+ 1.988427 0 2 tcp 552 ------- 1 0.0 4.0 7 17
+ 1.988427 0 2 tcp 552 ------- 1 0.0 4.0 8 18
- 1.990635 0 2 tcp 552 ------- 1 0.0 4.0 7 17
r 1.99192 4 3 ack 40 ------- 1 4.0 0.0 5 15
+ 1.99192 3 2 ack 40 ------- 1 4.0 0.0 5 15
- 1.99192 3 2 ack 40 ------- 1 4.0 0.0 5 15
- 1.992843 0 2 tcp 552 ------- 1 0.0 4.0 8 18
r 2.000635 0 2 tcp 552 ------- 1 0.0 4.0 6 16
+ 2.000635 2 3 tcp 552 ------- 1 0.0 4.0 6 16
- 2.000635 2 3 tcp 552 ------- 1 0.0 4.0 6 16
r 2.002843 0 2 tcp 552 ------- 1 0.0 4.0 7 17
+ 2.002843 2 3 tcp 552 ------- 1 0.0 4.0 7 17
r 2.005051 0 2 tcp 552 ------- 1 0.0 4.0 8 18
+ 2.005051 2 3 tcp 552 ------- 1 0.0 4.0 8 18
- 2.015355 2 3 tcp 552 ------- 1 0.0 4.0 7 17
- 2.030075 2 3 tcp 552 ------- 1 0.0 4.0 8 18
r 2.092987 3 2 ack 40 ------- 1 4.0 0.0 5 15
+ 2.092987 2 0 ack 40 ------- 1 4.0 0.0 5 15
- 2.092987 2 0 ack 40 ------- 1 4.0 0.0 5 15
r 2.103147 2 0 ack 40 ------- 1 4.0 0.0 5 15
+ 2.103147 0 2 tcp 552 ------- 1 0.0 4.0 9 19
- 2.103147 0 2 tcp 552 ------- 1 0.0 4.0 9 19
+ 2.103147 0 2 tcp 552 ------- 1 0.0 4.0 10 20
- 2.105355 0 2 tcp 552 ------- 1 0.0 4.0 10 20
r 2.115355 2 3 tcp 552 ------- 1 0.0 4.0 6 16
+ 2.115355 3 4 tcp 552 ------- 1 0.0 4.0 6 16
- 2.115355 3 4 tcp 552 ------- 1 0.0 4.0 6 16
r 2.115355 0 2 tcp 552 ------- 1 0.0 4.0 9 19
+ 2.115355 2 3 tcp 552 ------- 1 0.0 4.0 9 19
- 2.115355 2 3 tcp 552 ------- 1 0.0 4.0 9 19
r 2.117563 0 2 tcp 552 ------- 1 0.0 4.0 10 20
+ 2.117563 2 3 tcp 552 ------- 1 0.0 4.0 10 20
r 2.130075 2 3 tcp 552 ------- 1 0.0 4.0 7 17
+ 2.130075 3 4 tcp 552 ------- 1 0.0 4.0 7 17
- 2.130075 3 4 tcp 552 ------- 1 0.0 4.0 7 17
- 2.130075 2 3 tcp 552 ------- 1 0.0 4.0 10 20
r 2.144795 2 3 tcp 552 ------- 1 0.0 4.0 8 18
+ 2.144795 3 4 tcp 552 ------- 1 0.0 4.0 8 18
- 2.144795 3 4 tcp 552 ------- 1 0.0 4.0 8 18
r 2.164187 3 4 tcp 552 ------- 1 0.0 4.0 6 16
r 2.178907 3 4 tcp 552 ------- 1 0.0 4.0 7 17
+ 2.178907 4 3 ack 40 ------- 1 4.0 0.0 7 21
- 2.178907 4 3 ack 40 ------- 1 4.0 0.0 7 21
r 2.193627 3 4 tcp 552 ------- 1 0.0 4.0 8 18
r 2.219547 4 3 ack 40 ------- 1 4.0 0.0 7 21
+ 2.219547 3 2 ack 40 ------- 1 4.0 0.0 7 21
- 2.219547 3 2 ack 40 ------- 1 4.0 0.0 7 21
r 2.230075 2 3 tcp 552 ------- 1 0.0 4.0 9 19
+ 2.230075 3 4 tcp 552 ------- 1 0.0 4.0 9 19
- 2.230075 3 4 tcp 552 ------- 1 0.0 4.0 9 19
r 2.244795 2 3 tcp 552 ------- 1 0.0 4.0 10 20
+ 2.244795 3 4 tcp 552 ------- 1 0.0 4.0 10 20
- 2.244795 3 4 tcp 552 ------- 1 0.0 4.0 10 20
r 2.278907 3 4 tcp 552 ------- 1 0.0 4.0 9 19
+ 2.278907 4 3 ack 40 ------- 1 4.0 0.0 9 22
- 2.278907 4 3 ack 40 ------- 1 4.0 0.0 9 22
r 2.293627 3 4 tcp 552 ------- 1 0.0 4.0 10 20
r 2.319547 4 3 ack 40 ------- 1 4.0 0.0 9 22
+ 2.319547 3 2 ack 40 ------- 1 4.0 0.0 9 22
- 2.319547 3 2 ack 40 ------- 1 4.0 0.0 9 22
r 2.320613 3 2 ack 40 ------- 1 4.0 0.0 7 21
+ 2.320613 2 0 ack 40 ------- 1 4.0 0.0 7 21
- 2.320613 2 0 ack 40 ------- 1 4.0 0.0 7 21
r 2.330773 2 0 ack 40 ------- 1 4.0 0.0 7 21
+ 2.330773 0 2 tcp 552 ------- 1 0.0 4.0 11 23
- 2.330773 0 2 tcp 552 ------- 1 0.0 4.0 11 23
+ 2.330773 0 2 tcp 552 ------- 1 0.0 4.0 12 24
+ 2.330773 0 2 tcp 552 ------- 1 0.0 4.0 13 25
- 2.332981 0 2 tcp 552 ------- 1 0.0 4.0 12 24
- 2.335189 0 2 tcp 552 ------- 1 0.0 4.0 13 25
r 2.342981 0 2 tcp 552 ------- 1 0.0 4.0 11 23
+ 2.342981 2 3 tcp 552 ------- 1 0.0 4.0 11 23
- 2.342981 2 3 tcp 552 ------- 1 0.0 4.0 11 23
r 2.345189 0 2 tcp 552 ------- 1 0.0 4.0 12 24
+ 2.345189 2 3 tcp 552 ------- 1 0.0 4.0 12 24
r 2.347397 0 2 tcp 552 ------- 1 0.0 4.0 13 25
+ 2.347397 2 3 tcp 552 ------- 1 0.0 4.0 13 25
- 2.357701 2 3 tcp 552 ------- 1 0.0 4.0 12 24
- 2.372421 2 3 tcp 552 ------- 1 0.0 4.0 13 25
+ 2.393627 4 3 ack 40 ------- 1 4.0 0.0 10 26
- 2.393627 4 3 ack 40 ------- 1 4.0 0.0 10 26
r 2.420613 3 2 ack 40 ------- 1 4.0 0.0 9 22
+ 2.420613 2 0 ack 40 ------- 1 4.0 0.0 9 22
- 2.420613 2 0 ack 40 ------- 1 4.0 0.0 9 22
r 2.430773 2 0 ack 40 ------- 1 4.0 0.0 9 22
+ 2.430773 0 2 tcp 552 ------- 1 0.0 4.0 14 27
- 2.430773 0 2 tcp 552 ------- 1 0.0 4.0 14 27
+ 2.430773 0 2 tcp 552 ------- 1 0.0 4.0 15 28
+ 2.430773 0 2 tcp 552 ------- 1 0.0 4.0 16 29
- 2.432981 0 2 tcp 552 ------- 1 0.0 4.0 15 28
r 2.434267 4 3 ack 40 ------- 1 4.0 0.0 10 26
+ 2.434267 3 2 ack 40 ------- 1 4.0 0.0 10 26
- 2.434267 3 2 ack 40 ------- 1 4.0 0.0 10 26
- 2.435189 0 2 tcp 552 ------- 1 0.0 4.0 16 29
r 2.442981 0 2 tcp 552 ------- 1 0.0 4.0 14 27
+ 2.442981 2 3 tcp 552 ------- 1 0.0 4.0 14 27
- 2.442981 2 3 tcp 552 ------- 1 0.0 4.0 14 27
r 2.445189 0 2 tcp 552 ------- 1 0.0 4.0 15 28
+ 2.445189 2 3 tcp 552 ------- 1 0.0 4.0 15 28
r 2.447397 0 2 tcp 552 ------- 1 0.0 4.0 16 29
+ 2.447397 2 3 tcp 552 ------- 1 0.0 4.0 16 29
r 2.457701 2 3 tcp 552 ------- 1 0.0 4.0 11 23
+ 2.457701 3 4 tcp 552 ------- 1 0.0 4.0 11 23
- 2.457701 3 4 tcp 552 ------- 1 0.0 4.0 11 23
- 2.457701 2 3 tcp 552 ------- 1 0.0 4.0 15 28
r 2.472421 2 3 tcp 552 ------- 1 0.0 4.0 12 24
+ 2.472421 3 4 tcp 552 ------- 1 0.0 4.0 12 24
- 2.472421 3 4 tcp 552 ------- 1 0.0 4.0 12 24
- 2.472421 2 3 tcp 552 ------- 1 0.0 4.0 16 29
r 2.487141 2 3 tcp 552 ------- 1 0.0 4.0 13 25
+ 2.487141 3 4 tcp 552 ------- 1 0.0 4.0 13 25
- 2.487141 3 4 tcp 552 ------- 1 0.0 4.0 13 25
r 2.506533 3 4 tcp 552 ------- 1 0.0 4.0 11 23
r 2.521253 3 4 tcp 552 ------- 1 0.0 4.0 12 24
+ 2.521253 4 3 ack 40 ------- 1 4.0 0.0 12 30
- 2.521253 4 3 ack 40 ------- 1 4.0 0.0 12 30
r 2.535333 3 2 ack 40 ------- 1 4.0 0.0 10 26
+ 2.535333 2 0 ack 40 ------- 1 4.0 0.0 10 26
- 2.535333 2 0 ack 40 ------- 1 4.0 0.0 10 26
r 2.535973 3 4 tcp 552 ------- 1 0.0 4.0 13 25
r 2.545493 2 0 ack 40 ------- 1 4.0 0.0 10 26
+ 2.545493 0 2 tcp 552 ------- 1 0.0 4.0 17 31
- 2.545493 0 2 tcp 552 ------- 1 0.0 4.0 17 31
+ 2.545493 0 2 tcp 552 ------- 1 0.0 4.0 18 32
- 2.547701 0 2 tcp 552 ------- 1 0.0 4.0 18 32
+ 2.5576 1 2 cbr 1000 ------- 2 1.0 5.0 6 33
- 2.5576 1 2 cbr 1000 ------- 2 1.0 5.0 6 33
+ 2.5576 1 2 cbr 24 ------- 2 1.0 5.0 7 34
r 2.557701 2 3 tcp 552 ------- 1 0.0 4.0 14 27
+ 2.557701 3 4 tcp 552 ------- 1 0.0 4.0 14 27
- 2.557701 3 4 tcp 552 ------- 1 0.0 4.0 14 27
r 2.557701 0 2 tcp 552 ------- 1 0.0 4.0 17 31
+ 2.557701 2 3 tcp 552 ------- 1 0.0 4.0 17 31
- 2.557701 2 3 tcp 552 ------- 1 0.0 4.0 17 31
r 2.559909 0 2 tcp 552 ------- 1 0.0 4.0 18 32
+ 2.559909 2 3 tcp 552 ------- 1 0.0 4.0 18 32
- 2.5616 1 2 cbr 24 ------- 2 1.0 5.0 7 34
r 2.561893 4 3 ack 40 ------- 1 4.0 0.0 12 30
+ 2.561893 3 2 ack 40 ------- 1 4.0 0.0 12 30
- 2.561893 3 2 ack 40 ------- 1 4.0 0.0 12 30
r 2.5716 1 2 cbr 1000 ------- 2 1.0 5.0 6 33
+ 2.5716 2 3 cbr 1000 ------- 2 1.0 5.0 6 33
r 2.571696 1 2 cbr 24 ------- 2 1.0 5.0 7 34
+ 2.571696 2 3 cbr 24 ------- 2 1.0 5.0 7 34
r 2.572421 2 3 tcp 552 ------- 1 0.0 4.0 15 28
+ 2.572421 3 4 tcp 552 ------- 1 0.0 4.0 15 28
- 2.572421 3 4 tcp 552 ------- 1 0.0 4.0 15 28
- 2.572421 2 3 tcp 552 ------- 1 0.0 4.0 18 32
r 2.587141 2 3 tcp 552 ------- 1 0.0 4.0 16 29
+ 2.587141 3 4 tcp 552 ------- 1 0.0 4.0 16 29
- 2.587141 3 4 tcp 552 ------- 1 0.0 4.0 16 29
- 2.587141 2 3 cbr 1000 ------- 2 1.0 5.0 6 33
r 2.606533 3 4 tcp 552 ------- 1 0.0 4.0 14 27
+ 2.606533 4 3 ack 40 ------- 1 4.0 0.0 14 35
- 2.606533 4 3 ack 40 ------- 1 4.0 0.0 14 35
- 2.613808 2 3 cbr 24 ------- 2 1.0 5.0 7 34
r 2.621253 3 4 tcp 552 ------- 1 0.0 4.0 15 28
r 2.635973 3 4 tcp 552 ------- 1 0.0 4.0 16 29
+ 2.635973 4 3 ack 40 ------- 1 4.0 0.0 16 36
- 2.635973 4 3 ack 40 ------- 1 4.0 0.0 16 36
r 2.647173 4 3 ack 40 ------- 1 4.0 0.0 14 35
+ 2.647173 3 2 ack 40 ------- 1 4.0 0.0 14 35
- 2.647173 3 2 ack 40 ------- 1 4.0 0.0 14 35
r 2.66296 3 2 ack 40 ------- 1 4.0 0.0 12 30
+ 2.66296 2 0 ack 40 ------- 1 4.0 0.0 12 30
- 2.66296 2 0 ack 40 ------- 1 4.0 0.0 12 30
r 2.672421 2 3 tcp 552 ------- 1 0.0 4.0 17 31
+ 2.672421 3 4 tcp 552 ------- 1 0.0 4.0 17 31
- 2.672421 3 4 tcp 552 ------- 1 0.0 4.0 17 31
r 2.67312 2 0 ack 40 ------- 1 4.0 0.0 12 30
+ 2.67312 0 2 tcp 552 ------- 1 0.0 4.0 19 37
- 2.67312 0 2 tcp 552 ------- 1 0.0 4.0 19 37
+ 2.67312 0 2 tcp 552 ------- 1 0.0 4.0 20 38
+ 2.67312 0 2 tcp 552 ------- 1 0.0 4.0 21 39
- 2.675328 0 2 tcp 552 ------- 1 0.0 4.0 20 38
r 2.676613 4 3 ack 40 ------- 1 4.0 0.0 16 36
+ 2.676613 3 2 ack 40 ------- 1 4.0 0.0 16 36
- 2.676613 3 2 ack 40 ------- 1 4.0 0.0 16 36
- 2.677536 0 2 tcp 552 ------- 1 0.0 4.0 21 39
r 2.685328 0 2 tcp 552 ------- 1 0.0 4.0 19 37
+ 2.685328 2 3 tcp 552 ------- 1 0.0 4.0 19 37
- 2.685328 2 3 tcp 552 ------- 1 0.0 4.0 19 37
r 2.687141 2 3 tcp 552 ------- 1 0.0 4.0 18 32
+ 2.687141 3 4 tcp 552 ------- 1 0.0 4.0 18 32
- 2.687141 3 4 tcp 552 ------- 1 0.0 4.0 18 32
r 2.687536 0 2 tcp 552 ------- 1 0.0 4.0 20 38
+ 2.687536 2 3 tcp 552 ------- 1 0.0 4.0 20 38
r 2.689744 0 2 tcp 552 ------- 1 0.0 4.0 21 39
+ 2.689744 2 3 tcp 552 ------- 1 0.0 4.0 21 39
- 2.700048 2 3 tcp 552 ------- 1 0.0 4.0 20 38
r 2.713808 2 3 cbr 1000 ------- 2 1.0 5.0 6 33
+ 2.713808 3 5 cbr 1000 ------- 2 1.0 5.0 6 33
- 2.713808 3 5 cbr 1000 ------- 2 1.0 5.0 6 33
r 2.714448 2 3 cbr 24 ------- 2 1.0 5.0 7 34
+ 2.714448 3 5 cbr 24 ------- 2 1.0 5.0 7 34
- 2.714768 2 3 tcp 552 ------- 1 0.0 4.0 21 39
r 2.721253 3 4 tcp 552 ------- 1 0.0 4.0 17 31
- 2.729808 3 5 cbr 24 ------- 2 1.0 5.0 7 34
r 2.735973 3 4 tcp 552 ------- 1 0.0 4.0 18 32
+ 2.735973 4 3 ack 40 ------- 1 4.0 0.0 18 40
- 2.735973 4 3 ack 40 ------- 1 4.0 0.0 18 40
r 2.74824 3 2 ack 40 ------- 1 4.0 0.0 14 35
+ 2.74824 2 0 ack 40 ------- 1 4.0 0.0 14 35
- 2.74824 2 0 ack 40 ------- 1 4.0 0.0 14 35
r 2.7584 2 0 ack 40 ------- 1 4.0 0.0 14 35
+ 2.7584 0 2 tcp 552 ------- 1 0.0 4.0 22 41
- 2.7584 0 2 tcp 552 ------- 1 0.0 4.0 22 41
+ 2.7584 0 2 tcp 552 ------- 1 0.0 4.0 23 42
+ 2.7584 0 2 tcp 552 ------- 1 0.0 4.0 24 43
- 2.760608 0 2 tcp 552 ------- 1 0.0 4.0 23 42
- 2.762816 0 2 tcp 552 ------- 1 0.0 4.0 24 43
r 2.769808 3 5 cbr 1000 ------- 2 1.0 5.0 6 33
r 2.770192 3 5 cbr 24 ------- 2 1.0 5.0 7 34
r 2.770608 0 2 tcp 552 ------- 1 0.0 4.0 22 41
+ 2.770608 2 3 tcp 552 ------- 1 0.0 4.0 22 41
- 2.770608 2 3 tcp 552 ------- 1 0.0 4.0 22 41
r 2.772816 0 2 tcp 552 ------- 1 0.0 4.0 23 42
+ 2.772816 2 3 tcp 552 ------- 1 0.0 4.0 23 42
r 2.775024 0 2 tcp 552 ------- 1 0.0 4.0 24 43
+ 2.775024 2 3 tcp 552 ------- 1 0.0 4.0 24 43
r 2.776613 4 3 ack 40 ------- 1 4.0 0.0 18 40
+ 2.776613 3 2 ack 40 ------- 1 4.0 0.0 18 40
- 2.776613 3 2 ack 40 ------- 1 4.0 0.0 18 40
r 2.77768 3 2 ack 40 ------- 1 4.0 0.0 16 36
+ 2.77768 2 0 ack 40 ------- 1 4.0 0.0 16 36
- 2.77768 2 0 ack 40 ------- 1 4.0 0.0 16 36
- 2.785328 2 3 tcp 552 ------- 1 0.0 4.0 23 42
r 2.78784 2 0 ack 40 ------- 1 4.0 0.0 16 36
+ 2.78784 0 2 tcp 552 ------- 1 0.0 4.0 25 44
- 2.78784 0 2 tcp 552 ------- 1 0.0 4.0 25 44
+ 2.78784 0 2 tcp 552 ------- 1 0.0 4.0 26 45
+ 2.78784 0 2 tcp 552 ------- 1 0.0 4.0 27 46
- 2.790048 0 2 tcp 552 ------- 1 0.0 4.0 26 45
- 2.792256 0 2 tcp 552 ------- 1 0.0 4.0 27 46
r 2.800048 2 3 tcp 552 ------- 1 0.0 4.0 19 37
+ 2.800048 3 4 tcp 552 ------- 1 0.0 4.0 19 37
- 2.800048 3 4 tcp 552 ------- 1 0.0 4.0 19 37
- 2.800048 2 3 tcp 552 ------- 1 0.0 4.0 24 43
r 2.800048 0 2 tcp 552 ------- 1 0.0 4.0 25 44
+ 2.800048 2 3 tcp 552 ------- 1 0.0 4.0 25 44
r 2.802256 0 2 tcp 552 ------- 1 0.0 4.0 26 45
+ 2.802256 2 3 tcp 552 ------- 1 0.0 4.0 26 45
r 2.804464 0 2 tcp 552 ------- 1 0.0 4.0 27 46
+ 2.804464 2 3 tcp 552 ------- 1 0.0 4.0 27 46
r 2.814768 2 3 tcp 552 ------- 1 0.0 4.0 20 38
+ 2.814768 3 4 tcp 552 ------- 1 0.0 4.0 20 38
- 2.814768 3 4 tcp 552 ------- 1 0.0 4.0 20 38
- 2.814768 2 3 tcp 552 ------- 1 0.0 4.0 25 44
r 2.829488 2 3 tcp 552 ------- 1 0.0 4.0 21 39
+ 2.829488 3 4 tcp 552 ------- 1 0.0 4.0 21 39
- 2.829488 3 4 tcp 552 ------- 1 0.0 4.0 21 39
- 2.829488 2 3 tcp 552 ------- 1 0.0 4.0 26 45
- 2.844208 2 3 tcp 552 ------- 1 0.0 4.0 27 46
r 2.84888 3 4 tcp 552 ------- 1 0.0 4.0 19 37
r 2.8636 3 4 tcp 552 ------- 1 0.0 4.0 20 38
+ 2.8636 4 3 ack 40 ------- 1 4.0 0.0 20 47
- 2.8636 4 3 ack 40 ------- 1 4.0 0.0 20 47
r 2.87768 3 2 ack 40 ------- 1 4.0 0.0 18 40
+ 2.87768 2 0 ack 40 ------- 1 4.0 0.0 18 40
- 2.87768 2 0 ack 40 ------- 1 4.0 0.0 18 40
r 2.87832 3 4 tcp 552 ------- 1 0.0 4.0 21 39
r 2.885328 2 3 tcp 552 ------- 1 0.0 4.0 22 41
+ 2.885328 3 4 tcp 552 ------- 1 0.0 4.0 22 41
- 2.885328 3 4 tcp 552 ------- 1 0.0 4.0 22 41
r 2.88784 2 0 ack 40 ------- 1 4.0 0.0 18 40
+ 2.88784 0 2 tcp 552 ------- 1 0.0 4.0 28 48
- 2.88784 0 2 tcp 552 ------- 1 0.0 4.0 28 48
+ 2.88784 0 2 tcp 552 ------- 1 0.0 4.0 29 49
+ 2.88784 0 2 tcp 552 ------- 1 0.0 4.0 30 50
- 2.890048 0 2 tcp 552 ------- 1 0.0 4.0 29 49
- 2.892256 0 2 tcp 552 ------- 1 0.0 4.0 30 50
r 2.900048 2 3 tcp 552 ------- 1 0.0 4.0 23 42
+ 2.900048 3 4 tcp 552 ------- 1 0.0 4.0 23 42
- 2.900048 3 4 tcp 552 ------- 1 0.0 4.0 23 42
r 2.900048 0 2 tcp 552 ------- 1 0.0 4.0 28 48
+ 2.900048 2 3 tcp 552 ------- 1 0.0 4.0 28 48
- 2.900048 2 3 tcp 552 ------- 1 0.0 4.0 28 48
r 2.902256 0 2 tcp 552 ------- 1 0.0 4.0 29 49
+ 2.902256 2 3 tcp 552 ------- 1 0.0 4.0 29 49
r 2.90424 4 3 ack 40 ------- 1 4.0 0.0 20 47
+ 2.90424 3 2 ack 40 ------- 1 4.0 0.0 20 47
- 2.90424 3 2 ack 40 ------- 1 4.0 0.0 20 47
r 2.904464 0 2 tcp 552 ------- 1 0.0 4.0 30 50
+ 2.904464 2 3 tcp 552 ------- 1 0.0 4.0 30 50
r 2.914768 2 3 tcp 552 ------- 1 0.0 4.0 24 43
+ 2.914768 3 4 tcp 552 ------- 1 0.0 4.0 24 43
- 2.914768 3 4 tcp 552 ------- 1 0.0 4.0 24 43
- 2.914768 2 3 tcp 552 ------- 1 0.0 4.0 29 49
r 2.929488 2 3 tcp 552 ------- 1 0.0 4.0 25 44
+ 2.929488 3 4 tcp 552 ------- 1 0.0 4.0 25 44
- 2.929488 3 4 tcp 552 ------- 1 0.0 4.0 25 44
- 2.929488 2 3 tcp 552 ------- 1 0.0 4.0 30 50
r 2.93416 3 4 tcp 552 ------- 1 0.0 4.0 22 41
+ 2.93416 4 3 ack 40 ------- 1 4.0 0.0 22 51
- 2.93416 4 3 ack 40 ------- 1 4.0 0.0 22 51
r 2.944208 2 3 tcp 552 ------- 1 0.0 4.0 26 45
+ 2.944208 3 4 tcp 552 ------- 1 0.0 4.0 26 45
- 2.944208 3 4 tcp 552 ------- 1 0.0 4.0 26 45
r 2.94888 3 4 tcp 552 ------- 1 0.0 4.0 23 42
r 2.958928 2 3 tcp 552 ------- 1 0.0 4.0 27 46
+ 2.958928 3 4 tcp 552 ------- 1 0.0 4.0 27 46
- 2.958928 3 4 tcp 552 ------- 1 0.0 4.0 27 46
r 2.9636 3 4 tcp 552 ------- 1 0.0 4.0 24 43
+ 2.9636 4 3 ack 40 ------- 1 4.0 0.0 24 52
- 2.9636 4 3 ack 40 ------- 1 4.0 0.0 24 52
r 2.9748 4 3 ack 40 ------- 1 4.0 0.0 22 51
+ 2.9748 3 2 ack 40 ------- 1 4.0 0.0 22 51
- 2.9748 3 2 ack 40 ------- 1 4.0 0.0 22 51
r 2.97832 3 4 tcp 552 ------- 1 0.0 4.0 25 44
r 2.99304 3 4 tcp 552 ------- 1 0.0 4.0 26 45
+ 2.99304 4 3 ack 40 ------- 1 4.0 0.0 26 53
- 2.99304 4 3 ack 40 ------- 1 4.0 0.0 26 53
r 3.00424 4 3 ack 40 ------- 1 4.0 0.0 24 52
+ 3.00424 3 2 ack 40 ------- 1 4.0 0.0 24 52
- 3.00424 3 2 ack 40 ------- 1 4.0 0.0 24 52
r 3.005307 3 2 ack 40 ------- 1 4.0 0.0 20 47
+ 3.005307 2 0 ack 40 ------- 1 4.0 0.0 20 47
- 3.005307 2 0 ack 40 ------- 1 4.0 0.0 20 47
r 3.00776 3 4 tcp 552 ------- 1 0.0 4.0 27 46
r 3.014768 2 3 tcp 552 ------- 1 0.0 4.0 28 48
+ 3.014768 3 4 tcp 552 ------- 1 0.0 4.0 28 48
- 3.014768 3 4 tcp 552 ------- 1 0.0 4.0 28 48
r 3.015467 2 0 ack 40 ------- 1 4.0 0.0 20 47
+ 3.015467 0 2 tcp 552 ------- 1 0.0 4.0 31 54
- 3.015467 0 2 tcp 552 ------- 1 0.0 4.0 31 54
+ 3.015467 0 2 tcp 552 ------- 1 0.0 4.0 32 55
+ 3.015467 0 2 tcp 552 ------- 1 0.0 4.0 33 56
- 3.017675 0 2 tcp 552 ------- 1 0.0 4.0 32 55
- 3.019883 0 2 tcp 552 ------- 1 0.0 4.0 33 56
r 3.027675 0 2 tcp 552 ------- 1 0.0 4.0 31 54
+ 3.027675 2 3 tcp 552 ------- 1 0.0 4.0 31 54
- 3.027675 2 3 tcp 552 ------- 1 0.0 4.0 31 54
r 3.029488 2 3 tcp 552 ------- 1 0.0 4.0 29 49
+ 3.029488 3 4 tcp 552 ------- 1 0.0 4.0 29 49
- 3.029488 3 4 tcp 552 ------- 1 0.0 4.0 29 49
r 3.029883 0 2 tcp 552 ------- 1 0.0 4.0 32 55
+ 3.029883 2 3 tcp 552 ------- 1 0.0 4.0 32 55
r 3.032091 0 2 tcp 552 ------- 1 0.0 4.0 33 56
+ 3.032091 2 3 tcp 552 ------- 1 0.0 4.0 33 56
r 3.03368 4 3 ack 40 ------- 1 4.0 0.0 26 53
+ 3.03368 3 2 ack 40 ------- 1 4.0 0.0 26 53
- 3.03368 3 2 ack 40 ------- 1 4.0 0.0 26 53
- 3.042395 2 3 tcp 552 ------- 1 0.0 4.0 32 55
r 3.044208 2 3 tcp 552 ------- 1 0.0 4.0 30 50
+ 3.044208 3 4 tcp 552 ------- 1 0.0 4.0 30 50
- 3.044208 3 4 tcp 552 ------- 1 0.0 4.0 30 50
- 3.057115 2 3 tcp 552 ------- 1 0.0 4.0 33 56
r 3.0636 3 4 tcp 552 ------- 1 0.0 4.0 28 48
+ 3.0636 4 3 ack 40 ------- 1 4.0 0.0 28 57
- 3.0636 4 3 ack 40 ------- 1 4.0 0.0 28 57
r 3.075867 3 2 ack 40 ------- 1 4.0 0.0 22 51
+ 3.075867 2 0 ack 40 ------- 1 4.0 0.0 22 51
- 3.075867 2 0 ack 40 ------- 1 4.0 0.0 22 51
r 3.07832 3 4 tcp 552 ------- 1 0.0 4.0 29 49
r 3.086027 2 0 ack 40 ------- 1 4.0 0.0 22 51
+ 3.086027 0 2 tcp 552 ------- 1 0.0 4.0 34 58
- 3.086027 0 2 tcp 552 ------- 1 0.0 4.0 34 58
+ 3.086027 0 2 tcp 552 ------- 1 0.0 4.0 35 59
+ 3.086027 0 2 tcp 552 ------- 1 0.0 4.0 36 60
- 3.088235 0 2 tcp 552 ------- 1 0.0 4.0 35 59
- 3.090443 0 2 tcp 552 ------- 1 0.0 4.0 36 60
r 3.09304 3 4 tcp 552 ------- 1 0.0 4.0 30 50
+ 3.09304 4 3 ack 40 ------- 1 4.0 0.0 30 61
- 3.09304 4 3 ack 40 ------- 1 4.0 0.0 30 61
r 3.098235 0 2 tcp 552 ------- 1 0.0 4.0 34 58
+ 3.098235 2 3 tcp 552 ------- 1 0.0 4.0 34 58
- 3.098235 2 3 tcp 552 ------- 1 0.0 4.0 34 58
r 3.100443 0 2 tcp 552 ------- 1 0.0 4.0 35 59
+ 3.100443 2 3 tcp 552 ------- 1 0.0 4.0 35 59
r 3.102651 0 2 tcp 552 ------- 1 0.0 4.0 36 60
+ 3.102651 2 3 tcp 552 ------- 1 0.0 4.0 36 60
r 3.10424 4 3 ack 40 ------- 1 4.0 0.0 28 57
+ 3.10424 3 2 ack 40 ------- 1 4.0 0.0 28 57
- 3.10424 3 2 ack 40 ------- 1 4.0 0.0 28 57
r 3.105307 3 2 ack 40 ------- 1 4.0 0.0 24 52
+ 3.105307 2 0 ack 40 ------- 1 4.0 0.0 24 52
- 3.105307 2 0 ack 40 ------- 1 4.0 0.0 24 52
- 3.112955 2 3 tcp 552 ------- 1 0.0 4.0 35 59
r 3.115467 2 0 ack 40 ------- 1 4.0 0.0 24 52
+ 3.115467 0 2 tcp 552 ------- 1 0.0 4.0 37 62
- 3.115467 0 2 tcp 552 ------- 1 0.0 4.0 37 62
+ 3.115467 0 2 tcp 552 ------- 1 0.0 4.0 38 63
+ 3.115467 0 2 tcp 552 ------- 1 0.0 4.0 39 64
- 3.117675 0 2 tcp 552 ------- 1 0.0 4.0 38 63
- 3.119883 0 2 tcp 552 ------- 1 0.0 4.0 39 64
- 3.127675 2 3 tcp 552 ------- 1 0.0 4.0 36 60
r 3.127675 0 2 tcp 552 ------- 1 0.0 4.0 37 62
+ 3.127675 2 3 tcp 552 ------- 1 0.0 4.0 37 62
r 3.129883 0 2 tcp 552 ------- 1 0.0 4.0 38 63
+ 3.129883 2 3 tcp 552 ------- 1 0.0 4.0 38 63
r 3.132091 0 2 tcp 552 ------- 1 0.0 4.0 39 64
+ 3.132091 2 3 tcp 552 ------- 1 0.0 4.0 39 64
r 3.13368 4 3 ack 40 ------- 1 4.0 0.0 30 61
+ 3.13368 3 2 ack 40 ------- 1 4.0 0.0 30 61
- 3.13368 3 2 ack 40 ------- 1 4.0 0.0 30 61
r 3.134747 3 2 ack 40 ------- 1 4.0 0.0 26 53
+ 3.134747 2 0 ack 40 ------- 1 4.0 0.0 26 53
- 3.134747 2 0 ack 40 ------- 1 4.0 0.0 26 53
r 3.142395 2 3 tcp 552 ------- 1 0.0 4.0 31 54
+ 3.142395 3 4 tcp 552 ------- 1 0.0 4.0 31 54
- 3.142395 3 4 tcp 552 ------- 1 0.0 4.0 31 54
- 3.142395 2 3 tcp 552 ------- 1 0.0 4.0 37 62
r 3.144907 2 0 ack 40 ------- 1 4.0 0.0 26 53
+ 3.144907 0 2 tcp 552 ------- 1 0.0 4.0 40 65
- 3.144907 0 2 tcp 552 ------- 1 0.0 4.0 40 65
+ 3.144907 0 2 tcp 552 ------- 1 0.0 4.0 41 66
+ 3.144907 0 2 tcp 552 ------- 1 0.0 4.0 42 67
- 3.147115 0 2 tcp 552 ------- 1 0.0 4.0 41 66
- 3.149323 0 2 tcp 552 ------- 1 0.0 4.0 42 67
r 3.157115 2 3 tcp 552 ------- 1 0.0 4.0 32 55
+ 3.157115 3 4 tcp 552 ------- 1 0.0 4.0 32 55
- 3.157115 3 4 tcp 552 ------- 1 0.0 4.0 32 55
- 3.157115 2 3 tcp 552 ------- 1 0.0 4.0 38 63
r 3.157115 0 2 tcp 552 ------- 1 0.0 4.0 40 65
+ 3.157115 2 3 tcp 552 ------- 1 0.0 4.0 40 65
r 3.159323 0 2 tcp 552 ------- 1 0.0 4.0 41 66
+ 3.159323 2 3 tcp 552 ------- 1 0.0 4.0 41 66
r 3.161531 0 2 tcp 552 ------- 1 0.0 4.0 42 67
+ 3.161531 2 3 tcp 552 ------- 1 0.0 4.0 42 67
r 3.171835 2 3 tcp 552 ------- 1 0.0 4.0 33 56
+ 3.171835 3 4 tcp 552 ------- 1 0.0 4.0 33 56
- 3.171835 3 4 tcp 552 ------- 1 0.0 4.0 33 56
- 3.171835 2 3 tcp 552 ------- 1 0.0 4.0 39 64
- 3.186555 2 3 tcp 552 ------- 1 0.0 4.0 40 65
r 3.191227 3 4 tcp 552 ------- 1 0.0 4.0 31 54
- 3.201275 2 3 tcp 552 ------- 1 0.0 4.0 41 66
r 3.205307 3 2 ack 40 ------- 1 4.0 0.0 28 57
+ 3.205307 2 0 ack 40 ------- 1 4.0 0.0 28 57
- 3.205307 2 0 ack 40 ------- 1 4.0 0.0 28 57
r 3.205947 3 4 tcp 552 ------- 1 0.0 4.0 32 55
+ 3.205947 4 3 ack 40 ------- 1 4.0 0.0 32 68
- 3.205947 4 3 ack 40 ------- 1 4.0 0.0 32 68
r 3.212955 2 3 tcp 552 ------- 1 0.0 4.0 34 58
+ 3.212955 3 4 tcp 552 ------- 1 0.0 4.0 34 58
- 3.212955 3 4 tcp 552 ------- 1 0.0 4.0 34 58
r 3.215467 2 0 ack 40 ------- 1 4.0 0.0 28 57
+ 3.215467 0 2 tcp 552 ------- 1 0.0 4.0 43 69
- 3.215467 0 2 tcp 552 ------- 1 0.0 4.0 43 69
+ 3.215467 0 2 tcp 552 ------- 1 0.0 4.0 44 70
+ 3.215467 0 2 tcp 552 ------- 1 0.0 4.0 45 71
- 3.215995 2 3 tcp 552 ------- 1 0.0 4.0 42 67
- 3.217675 0 2 tcp 552 ------- 1 0.0 4.0 44 70
- 3.219883 0 2 tcp 552 ------- 1 0.0 4.0 45 71
r 3.220667 3 4 tcp 552 ------- 1 0.0 4.0 33 56
r 3.227675 2 3 tcp 552 ------- 1 0.0 4.0 35 59
+ 3.227675 3 4 tcp 552 ------- 1 0.0 4.0 35 59
- 3.227675 3 4 tcp 552 ------- 1 0.0 4.0 35 59
r 3.227675 0 2 tcp 552 ------- 1 0.0 4.0 43 69
+ 3.227675 2 3 tcp 552 ------- 1 0.0 4.0 43 69
r 3.229883 0 2 tcp 552 ------- 1 0.0 4.0 44 70
+ 3.229883 2 3 tcp 552 ------- 1 0.0 4.0 44 70
- 3.230715 2 3 tcp 552 ------- 1 0.0 4.0 43 69
r 3.232091 0 2 tcp 552 ------- 1 0.0 4.0 45 71
+ 3.232091 2 3 tcp 552 ------- 1 0.0 4.0 45 71
r 3.234747 3 2 ack 40 ------- 1 4.0 0.0 30 61
+ 3.234747 2 0 ack 40 ------- 1 4.0 0.0 30 61
- 3.234747 2 0 ack 40 ------- 1 4.0 0.0 30 61
r 3.242395 2 3 tcp 552 ------- 1 0.0 4.0 36 60
+ 3.242395 3 4 tcp 552 ------- 1 0.0 4.0 36 60
- 3.242395 3 4 tcp 552 ------- 1 0.0 4.0 36 60
r 3.244907 2 0 ack 40 ------- 1 4.0 0.0 30 61
+ 3.244907 0 2 tcp 552 ------- 1 0.0 4.0 46 72
- 3.244907 0 2 tcp 552 ------- 1 0.0 4.0 46 72
+ 3.244907 0 2 tcp 552 ------- 1 0.0 4.0 47 73
+ 3.244907 0 2 tcp 552 ------- 1 0.0 4.0 48 74
- 3.245435 2 3 tcp 552 ------- 1 0.0 4.0 44 70
r 3.246587 4 3 ack 40 ------- 1 4.0 0.0 32 68
+ 3.246587 3 2 ack 40 ------- 1 4.0 0.0 32 68
- 3.246587 3 2 ack 40 ------- 1 4.0 0.0 32 68
- 3.247115 0 2 tcp 552 ------- 1 0.0 4.0 47 73
- 3.249323 0 2 tcp 552 ------- 1 0.0 4.0 48 74
r 3.257115 2 3 tcp 552 ------- 1 0.0 4.0 37 62
+ 3.257115 3 4 tcp 552 ------- 1 0.0 4.0 37 62
- 3.257115 3 4 tcp 552 ------- 1 0.0 4.0 37 62
r 3.257115 0 2 tcp 552 ------- 1 0.0 4.0 46 72
+ 3.257115 2 3 tcp 552 ------- 1 0.0 4.0 46 72
r 3.259323 0 2 tcp 552 ------- 1 0.0 4.0 47 73
+ 3.259323 2 3 tcp 552 ------- 1 0.0 4.0 47 73
- 3.260155 2 3 tcp 552 ------- 1 0.0 4.0 45 71
r 3.261531 0 2 tcp 552 ------- 1 0.0 4.0 48 74
+ 3.261531 2 3 tcp 552 ------- 1 0.0 4.0 48 74
r 3.261787 3 4 tcp 552 ------- 1 0.0 4.0 34 58
+ 3.261787 4 3 ack 40 ------- 1 4.0 0.0 34 75
- 3.261787 4 3 ack 40 ------- 1 4.0 0.0 34 75
r 3.271835 2 3 tcp 552 ------- 1 0.0 4.0 38 63
+ 3.271835 3 4 tcp 552 ------- 1 0.0 4.0 38 63
- 3.271835 3 4 tcp 552 ------- 1 0.0 4.0 38 63
- 3.274875 2 3 tcp 552 ------- 1 0.0 4.0 46 72
r 3.276507 3 4 tcp 552 ------- 1 0.0 4.0 35 59
r 3.286555 2 3 tcp 552 ------- 1 0.0 4.0 39 64
+ 3.286555 3 4 tcp 552 ------- 1 0.0 4.0 39 64
- 3.286555 3 4 tcp 552 ------- 1 0.0 4.0 39 64
- 3.289595 2 3 tcp 552 ------- 1 0.0 4.0 47 73
r 3.291227 3 4 tcp 552 ------- 1 0.0 4.0 36 60
+ 3.291227 4 3 ack 40 ------- 1 4.0 0.0 36 76
- 3.291227 4 3 ack 40 ------- 1 4.0 0.0 36 76
r 3.301275 2 3 tcp 552 ------- 1 0.0 4.0 40 65
+ 3.301275 3 4 tcp 552 ------- 1 0.0 4.0 40 65
- 3.301275 3 4 tcp 552 ------- 1 0.0 4.0 40 65
r 3.302427 4 3 ack 40 ------- 1 4.0 0.0 34 75
+ 3.302427 3 2 ack 40 ------- 1 4.0 0.0 34 75
- 3.302427 3 2 ack 40 ------- 1 4.0 0.0 34 75
- 3.304315 2 3 tcp 552 ------- 1 0.0 4.0 48 74
r 3.305947 3 4 tcp 552 ------- 1 0.0 4.0 37 62
r 3.315995 2 3 tcp 552 ------- 1 0.0 4.0 41 66
+ 3.315995 3 4 tcp 552 ------- 1 0.0 4.0 41 66
- 3.315995 3 4 tcp 552 ------- 1 0.0 4.0 41 66
r 3.320667 3 4 tcp 552 ------- 1 0.0 4.0 38 63
+ 3.320667 4 3 ack 40 ------- 1 4.0 0.0 38 77
- 3.320667 4 3 ack 40 ------- 1 4.0 0.0 38 77
r 3.330715 2 3 tcp 552 ------- 1 0.0 4.0 42 67
+ 3.330715 3 4 tcp 552 ------- 1 0.0 4.0 42 67
- 3.330715 3 4 tcp 552 ------- 1 0.0 4.0 42 67