V -t * -v 1.0a5 -a 0
A -t * -n 1 -p 0 -o 0x7fffffff -c 30 -a 1
A -t * -h 1 -m 1073741823 -s 0
c -t * -i 0 -n violet
c -t * -i 1 -n green
c -t * -i 2 -n orange
c -t * -i 3 -n red
n -t * -a 8 -s 8 -S UP -v circle -c black -i black
n -t * -a 4 -s 4 -S UP -v circle -c black -i black
n -t * -a 0 -s 0 -S UP -v circle -c black -i black
n -t * -a 10 -s 10 -S UP -v circle -c black -i black
n -t * -a 9 -s 9 -S UP -v circle -c black -i black
n -t * -a 5 -s 5 -S UP -v circle -c black -i black
n -t * -a 1 -s 1 -S UP -v circle -c black -i black
n -t * -a 6 -s 6 -S UP -v circle -c black -i black
n -t * -a 2 -s 2 -S UP -v circle -c black -i black
n -t * -a 7 -s 7 -S UP -v circle -c black -i black
n -t * -a 3 -s 3 -S UP -v circle -c black -i black
l -t * -s 5 -d 1 -S UP -r 5000000 -D 0.002 -c black -o up
l -t * -s 5 -d 2 -S UP -r 5000000 -D 0.002 -c black -o left-up
l -t * -s 5 -d 3 -S UP -r 5000000 -D 0.002 -c black -o left-down
l -t * -s 5 -d 4 -S UP -r 5000000 -D 0.002 -c black -o down
l -t * -s 5 -d 6 -S UP -r 1500000 -D 0.002 -c black -o right
l -t * -s 6 -d 7 -S UP -r 5000000 -D 0.002 -c black -o up
l -t * -s 6 -d 8 -S UP -r 5000000 -D 0.002 -c black -o right-up
l -t * -s 6 -d 9 -S UP -r 5000000 -D 0.002 -c black -o right-down
l -t * -s 6 -d 10 -S UP -r 5000000 -D 0.002 -c black -o down
+ -t 0.2 -s 1 -d 5 -p tcp -e 40 -c 2 -i 0 -a 2 -x {1.0 7.0 0 ------- null}
- -t 0.2 -s 1 -d 5 -p tcp -e 40 -c 2 -i 0 -a 2 -x {1.0 7.0 0 ------- null}
h -t 0.2 -s 1 -d 5 -p tcp -e 40 -c 2 -i 0 -a 2 -x {1.0 7.0 -1 ------- null}
r -t 0.202064 -s 1 -d 5 -p tcp -e 40 -c 2 -i 0 -a 2 -x {1.0 7.0 0 ------- null}
+ -t 0.202064 -s 5 -d 6 -p tcp -e 40 -c 2 -i 0 -a 2 -x {1.0 7.0 0 ------- null}
- -t 0.202064 -s 5 -d 6 -p tcp -e 40 -c 2 -i 0 -a 2 -x {1.0 7.0 0 ------- null}
h -t 0.202064 -s 5 -d 6 -p tcp -e 40 -c 2 -i 0 -a 2 -x {1.0 7.0 -1 ------- null}
r -t 0.204277333333333 -s 5 -d 6 -p tcp -e 40 -c 2 -i 0 -a 2 -x {1.0 7.0 0 ------- null}
+ -t 0.204277333333333 -s 6 -d 7 -p tcp -e 40 -c 2 -i 0 -a 2 -x {1.0 7.0 0 ------- null}
- -t 0.204277333333333 -s 6 -d 7 -p tcp -e 40 -c 2 -i 0 -a 2 -x {1.0 7.0 0 ------- null}
h -t 0.204277333333333 -s 6 -d 7 -p tcp -e 40 -c 2 -i 0 -a 2 -x {1.0 7.0 -1 ------- null}
r -t 0.206341333333333 -s 6 -d 7 -p tcp -e 40 -c 2 -i 0 -a 2 -x {1.0 7.0 0 ------- null}
+ -t 0.206341333333333 -s 7 -d 6 -p ack -e 40 -c 2 -i 1 -a 2 -x {7.0 1.0 0 ------- null}
- -t 0.206341333333333 -s 7 -d 6 -p ack -e 40 -c 2 -i 1 -a 2 -x {7.0 1.0 0 ------- null}
h -t 0.206341333333333 -s 7 -d 6 -p ack -e 40 -c 2 -i 1 -a 2 -x {7.0 1.0 -1 ------- null}
r -t 0.208405333333333 -s 7 -d 6 -p ack -e 40 -c 2 -i 1 -a 2 -x {7.0 1.0 0 ------- null}
+ -t 0.208405333333333 -s 6 -d 5 -p ack -e 40 -c 2 -i 1 -a 2 -x {7.0 1.0 0 ------- null}
- -t 0.208405333333333 -s 6 -d 5 -p ack -e 40 -c 2 -i 1 -a 2 -x {7.0 1.0 0 ------- null}
h -t 0.208405333333333 -s 6 -d 5 -p ack -e 40 -c 2 -i 1 -a 2 -x {7.0 1.0 -1 ------- null}
r -t 0.210618666666667 -s 6 -d 5 -p ack -e 40 -c 2 -i 1 -a 2 -x {7.0 1.0 0 ------- null}
+ -t 0.210618666666667 -s 5 -d 1 -p ack -e 40 -c 2 -i 1 -a 2 -x {7.0 1.0 0 ------- null}
- -t 0.210618666666667 -s 5 -d 1 -p ack -e 40 -c 2 -i 1 -a 2 -x {7.0 1.0 0 ------- null}
h -t 0.210618666666667 -s 5 -d 1 -p ack -e 40 -c 2 -i 1 -a 2 -x {7.0 1.0 -1 ------- null}
r -t 0.212682666666667 -s 5 -d 1 -p ack -e 40 -c 2 -i 1 -a 2 -x {7.0 1.0 0 ------- null}
+ -t 0.212682666666667 -s 1 -d 5 -p tcp -e 1040 -c 2 -i 2 -a 2 -x {1.0 7.0 1 ------- null}
- -t 0.212682666666667 -s 1 -d 5 -p tcp -e 1040 -c 2 -i 2 -a 2 -x {1.0 7.0 1 ------- null}
h -t 0.212682666666667 -s 1 -d 5 -p tcp -e 1040 -c 2 -i 2 -a 2 -x {1.0 7.0 -1 ------- null}
+ -t 0.212682666666667 -s 1 -d 5 -p tcp -e 1040 -c 2 -i 3 -a 2 -x {1.0 7.0 2 ------- null}
- -t 0.214346666666667 -s 1 -d 5 -p tcp -e 1040 -c 2 -i 3 -a 2 -x {1.0 7.0 2 ------- null}
h -t 0.214346666666667 -s 1 -d 5 -p tcp -e 1040 -c 2 -i 3 -a 2 -x {1.0 7.0 -1 ------- null}
r -t 0.216346666666667 -s 1 -d 5 -p tcp -e 1040 -c 2 -i 2 -a 2 -x {1.0 7.0 1 ------- null}
+ -t 0.216346666666667 -s 5 -d 6 -p tcp -e 1040 -c 2 -i 2 -a 2 -x {1.0 7.0 1 ------- null}
- -t 0.216346666666667 -s 5 -d 6 -p tcp -e 1040 -c 2 -i 2 -a 2 -x {1.0 7.0 1 ------- null}
h -t 0.216346666666667 -s 5 -d 6 -p tcp -e 1040 -c 2 -i 2 -a 2 -x {1.0 7.0 -1 ------- null}
r -t 0.218010666666667 -s 1 -d 5 -p tcp -e 1040 -c 2 -i 3 -a 2 -x {1.0 7.0 2 ------- null}
+ -t 0.218010666666667 -s 5 -d 6 -p tcp -e 1040 -c 2 -i 3 -a 2 -x {1.0 7.0 2 ------- null}
- -t 0.221893333333333 -s 5 -d 6 -p tcp -e 1040 -c 2 -i 3 -a 2 -x {1.0 7.0 2 ------- null}
h -t 0.221893333333333 -s 5 -d 6 -p tcp -e 1040 -c 2 -i 3 -a 2 -x {1.0 7.0 -1 ------- null}
r -t 0.223893333333333 -s 5 -d 6 -p tcp -e 1040 -c 2 -i 2 -a 2 -x {1.0 7.0 1 ------- null}
+ -t 0.223893333333333 -s 6 -d 7 -p tcp -e 1040 -c 2 -i 2 -a 2 -x {1.0 7.0 1 ------- null}
- -t 0.223893333333333 -s 6 -d 7 -p tcp -e 1040 -c 2 -i 2 -a 2 -x {1.0 7.0 1 ------- null}
h -t 0.223893333333333 -s 6 -d 7 -p tcp -e 1040 -c 2 -i 2 -a 2 -x {1.0 7.0 -1 ------- null}
r -t 0.227557333333333 -s 6 -d 7 -p tcp -e 1040 -c 2 -i 2 -a 2 -x {1.0 7.0 1 ------- null}
+ -t 0.227557333333333 -s 7 -d 6 -p ack -e 40 -c 2 -i 4 -a 2 -x {7.0 1.0 1 ------- null}
- -t 0.227557333333333 -s 7 -d 6 -p ack -e 40 -c 2 -i 4 -a 2 -x {7.0 1.0 1 ------- null}
h -t 0.227557333333333 -s 7 -d 6 -p ack -e 40 -c 2 -i 4 -a 2 -x {7.0 1.0 -1 ------- null}
r -t 0.22944 -s 5 -d 6 -p tcp -e 1040 -c 2 -i 3 -a 2 -x {1.0 7.0 2 ------- null}
+ -t 0.22944 -s 6 -d 7 -p tcp -e 1040 -c 2 -i 3 -a 2 -x {1.0 7.0 2 ------- null}
- -t 0.22944 -s 6 -d 7 -p tcp -e 1040 -c 2 -i 3 -a 2 -x {1.0 7.0 2 ------- null}
h -t 0.22944 -s 6 -d 7 -p tcp -e 1040 -c 2 -i 3 -a 2 -x {1.0 7.0 -1 ------- null}
r -t 0.229621333333333 -s 7 -d 6 -p ack -e 40 -c 2 -i 4 -a 2 -x {7.0 1.0 1 ------- null}
+ -t 0.229621333333333 -s 6 -d 5 -p ack -e 40 -c 2 -i 4 -a 2 -x {7.0 1.0 1 ------- null}
- -t 0.229621333333333 -s 6 -d 5 -p ack -e 40 -c 2 -i 4 -a 2 -x {7.0 1.0 1 ------- null}
h -t 0.229621333333333 -s 6 -d 5 -p ack -e 40 -c 2 -i 4 -a 2 -x {7.0 1.0 -1 ------- null}
r -t 0.231834666666667 -s 6 -d 5 -p ack -e 40 -c 2 -i 4 -a 2 -x {7.0 1.0 1 ------- null}
+ -t 0.231834666666667 -s 5 -d 1 -p ack -e 40 -c 2 -i 4 -a 2 -x {7.0 1.0 1 ------- null}
- -t 0.231834666666667 -s 5 -d 1 -p ack -e 40 -c 2 -i 4 -a 2 -x {7.0 1.0 1 ------- null}
h -t 0.231834666666667 -s 5 -d 1 -p ack -e 40 -c 2 -i 4 -a 2 -x {7.0 1.0 -1 ------- null}
r -t 0.233104 -s 6 -d 7 -p tcp -e 1040 -c 2 -i 3 -a 2 -x {1.0 7.0 2 ------- null}
+ -t 0.233104 -s 7 -d 6 -p ack -e 40 -c 2 -i 5 -a 2 -x {7.0 1.0 2 ------- null}
- -t 0.233104 -s 7 -d 6 -p ack -e 40 -c 2 -i 5 -a 2 -x {7.0 1.0 2 ------- null}
h -t 0.233104 -s 7 -d 6 -p ack -e 40 -c 2 -i 5 -a 2 -x {7.0 1.0 -1 ------- null}
r -t 0.233898666666667 -s 5 -d 1 -p ack -e 40 -c 2 -i 4 -a 2 -x {7.0 1.0 1 ------- null}
+ -t 0.233898666666667 -s 1 -d 5 -p tcp -e 1040 -c 2 -i 6 -a 2 -x {1.0 7.0 3 ------- null}
- -t 0.233898666666667 -s 1 -d 5 -p tcp -e 1040 -c 2 -i 6 -a 2 -x {1.0 7.0 3 ------- null}
h -t 0.233898666666667 -s 1 -d 5 -p tcp -e 1040 -c 2 -i 6 -a 2 -x {1.0 7.0 -1 ------- null}
+ -t 0.233898666666667 -s 1 -d 5 -p tcp -e 1040 -c 2 -i 7 -a 2 -x {1.0 7.0 4 ------- null}
r -t 0.235168 -s 7 -d 6 -p ack -e 40 -c 2 -i 5 -a 2 -x {7.0 1.0 2 ------- null}
+ -t 0.235168 -s 6 -d 5 -p ack -e 40 -c 2 -i 5 -a 2 -x {7.0 1.0 2 ------- null}
- -t 0.235168 -s 6 -d 5 -p ack -e 40 -c 2 -i 5 -a 2 -x {7.0 1.0 2 ------- null}
h -t 0.235168 -s 6 -d 5 -p ack -e 40 -c 2 -i 5 -a 2 -x {7.0 1.0 -1 ------- null}
- -t 0.235562666666667 -s 1 -d 5 -p tcp -e 1040 -c 2 -i 7 -a 2 -x {1.0 7.0 4 ------- null}
h -t 0.235562666666667 -s 1 -d 5 -p tcp -e 1040 -c 2 -i 7 -a 2 -x {1.0 7.0 -1 ------- null}
r -t 0.237381333333333 -s 6 -d 5 -p ack -e 40 -c 2 -i 5 -a 2 -x {7.0 1.0 2 ------- null}
+ -t 0.237381333333333 -s 5 -d 1 -p ack -e 40 -c 2 -i 5 -a 2 -x {7.0 1.0 2 ------- null}
- -t 0.237381333333333 -s 5 -d 1 -p ack -e 40 -c 2 -i 5 -a 2 -x {7.0 1.0 2 ------- null}
h -t 0.237381333333333 -s 5 -d 1 -p ack -e 40 -c 2 -i 5 -a 2 -x {7.0 1.0 -1 ------- null}
r -t 0.237562666666667 -s 1 -d 5 -p tcp -e 1040 -c 2 -i 6 -a 2 -x {1.0 7.0 3 ------- null}
+ -t 0.237562666666667 -s 5 -d 6 -p tcp -e 1040 -c 2 -i 6 -a 2 -x {1.0 7.0 3 ------- null}
- -t 0.237562666666667 -s 5 -d 6 -p tcp -e 1040 -c 2 -i 6 -a 2 -x {1.0 7.0 3 ------- null}
h -t 0.237562666666667 -s 5 -d 6 -p tcp -e 1040 -c 2 -i 6 -a 2 -x {1.0 7.0 -1 ------- null}
r -t 0.239226666666667 -s 1 -d 5 -p tcp -e 1040 -c 2 -i 7 -a 2 -x {1.0 7.0 4 ------- null}
+ -t 0.239226666666667 -s 5 -d 6 -p tcp -e 1040 -c 2 -i 7 -a 2 -x {1.0 7.0 4 ------- null}
r -t 0.239445333333333 -s 5 -d 1 -p ack -e 40 -c 2 -i 5 -a 2 -x {7.0 1.0 2 ------- null}
+ -t 0.239445333333333 -s 1 -d 5 -p tcp -e 1040 -c 2 -i 8 -a 2 -x {1.0 7.0 5 ------- null}
- -t 0.239445333333333 -s 1 -d 5 -p tcp -e 1040 -c 2 -i 8 -a 2 -x {1.0 7.0 5 ------- null}
h -t 0.239445333333333 -s 1 -d 5 -p tcp -e 1040 -c 2 -i 8 -a 2 -x {1.0 7.0 -1 ------- null}
+ -t 0.239445333333333 -s 1 -d 5 -p tcp -e 1040 -c 2 -i 9 -a 2 -x {1.0 7.0 6 ------- null}
- -t 0.241109333333333 -s 1 -d 5 -p tcp -e 1040 -c 2 -i 9 -a 2 -x {1.0 7.0 6 ------- null}
h -t 0.241109333333333 -s 1 -d 5 -p tcp -e 1040 -c 2 -i 9 -a 2 -x {1.0 7.0 -1 ------- null}
- -t 0.243109333333333 -s 5 -d 6 -p tcp -e 1040 -c 2 -i 7 -a 2 -x {1.0 7.0 4 ------- null}
h -t 0.243109333333333 -s 5 -d 6 -p tcp -e 1040 -c 2 -i 7 -a 2 -x {1.0 7.0 -1 ------- null}
r -t 0.243109333333333 -s 1 -d 5 -p tcp -e 1040 -c 2 -i 8 -a 2 -x {1.0 7.0 5 ------- null}
+ -t 0.243109333333333 -s 5 -d 6 -p tcp -e 1040 -c 2 -i 8 -a 2 -x {1.0 7.0 5 ------- null}
r -t 0.244773333333333 -s 1 -d 5 -p tcp -e 1040 -c 2 -i 9 -a 2 -x {1.0 7.0 6 ------- null}
+ -t 0.244773333333333 -s 5 -d 6 -p tcp -e 1040 -c 2 -i 9 -a 2 -x {1.0 7.0 6 ------- null}
r -t 0.245109333333333 -s 5 -d 6 -p tcp -e 1040 -c 2 -i 6 -a 2 -x {1.0 7.0 3 ------- null}
+ -t 0.245109333333333 -s 6 -d 7 -p tcp -e 1040 -c 2 -i 6 -a 2 -x {1.0 7.0 3 ------- null}
- -t 0.245109333333333 -s 6 -d 7 -p tcp -e 1040 -c 2 -i 6 -a 2 -x {1.0 7.0 3 ------- null}
h -t 0.245109333333333 -s 6 -d 7 -p tcp -e 1040 -c 2 -i 6 -a 2 -x {1.0 7.0 -1 ------- null}
- -t 0.248656 -s 5 -d 6 -p tcp -e 1040 -c 2 -i 8 -a 2 -x {1.0 7.0 5 ------- null}
h -t 0.248656 -s 5 -d 6 -p tcp -e 1040 -c 2 -i 8 -a 2 -x {1.0 7.0 -1 ------- null}
r -t 0.248773333333333 -s 6 -d 7 -p tcp -e 1040 -c 2 -i 6 -a 2 -x {1.0 7.0 3 ------- null}
+ -t 0.248773333333333 -s 7 -d 6 -p ack -e 40 -c 2 -i 10 -a 2 -x {7.0 1.0 3 ------- null}
- -t 0.248773333333333 -s 7 -d 6 -p ack -e 40 -c 2 -i 10 -a 2 -x {7.0 1.0 3 ------- null}
h -t 0.248773333333333 -s 7 -d 6 -p ack -e 40 -c 2 -i 10 -a 2 -x {7.0 1.0 -1 ------- null}
r -t 0.250656 -s 5 -d 6 -p tcp -e 1040 -c 2 -i 7 -a 2 -x {1.0 7.0 4 ------- null}
+ -t 0.250656 -s 6 -d 7 -p tcp -e 1040 -c 2 -i 7 -a 2 -x {1.0 7.0 4 ------- null}
- -t 0.250656 -s 6 -d 7 -p tcp -e 1040 -c 2 -i 7 -a 2 -x {1.0 7.0 4 ------- null}
h -t 0.250656 -s 6 -d 7 -p tcp -e 1040 -c 2 -i 7 -a 2 -x {1.0 7.0 -1 ------- null}
r -t 0.250837333333333 -s 7 -d 6 -p ack -e 40 -c 2 -i 10 -a 2 -x {7.0 1.0 3 ------- null}
+ -t 0.250837333333333 -s 6 -d 5 -p ack -e 40 -c 2 -i 10 -a 2 -x {7.0 1.0 3 ------- null}
- -t 0.250837333333333 -s 6 -d 5 -p ack -e 40 -c 2 -i 10 -a 2 -x {7.0 1.0 3 ------- null}
h -t 0.250837333333333 -s 6 -d 5 -p ack -e 40 -c 2 -i 10 -a 2 -x {7.0 1.0 -1 ------- null}
r -t 0.253050666666667 -s 6 -d 5 -p ack -e 40 -c 2 -i 10 -a 2 -x {7.0 1.0 3 ------- null}
+ -t 0.253050666666667 -s 5 -d 1 -p ack -e 40 -c 2 -i 10 -a 2 -x {7.0 1.0 3 ------- null}
- -t 0.253050666666667 -s 5 -d 1 -p ack -e 40 -c 2 -i 10 -a 2 -x {7.0 1.0 3 ------- null}
h -t 0.253050666666667 -s 5 -d 1 -p ack -e 40 -c 2 -i 10 -a 2 -x {7.0 1.0 -1 ------- null}
- -t 0.254202666666667 -s 5 -d 6 -p tcp -e 1040 -c 2 -i 9 -a 2 -x {1.0 7.0 6 ------- null}
h -t 0.254202666666667 -s 5 -d 6 -p tcp -e 1040 -c 2 -i 9 -a 2 -x {1.0 7.0 -1 ------- null}
r -t 0.25432 -s 6 -d 7 -p tcp -e 1040 -c 2 -i 7 -a 2 -x {1.0 7.0 4 ------- null}
+ -t 0.25432 -s 7 -d 6 -p ack -e 40 -c 2 -i 11 -a 2 -x {7.0 1.0 4 ------- null}
- -t 0.25432 -s 7 -d 6 -p ack -e 40 -c 2 -i 11 -a 2 -x {7.0 1.0 4 ------- null}
h -t 0.25432 -s 7 -d 6 -p ack -e 40 -c 2 -i 11 -a 2 -x {7.0 1.0 -1 ------- null}
r -t 0.255114666666667 -s 5 -d 1 -p ack -e 40 -c 2 -i 10 -a 2 -x {7.0 1.0 3 ------- null}
+ -t 0.255114666666667 -s 1 -d 5 -p tcp -e 1040 -c 2 -i 12 -a 2 -x {1.0 7.0 7 ------- null}
- -t 0.255114666666667 -s 1 -d 5 -p tcp -e 1040 -c 2 -i 12 -a 2 -x {1.0 7.0 7 ------- null}
h -t 0.255114666666667 -s 1 -d 5 -p tcp -e 1040 -c 2 -i 12 -a 2 -x {1.0 7.0 -1 ------- null}
+ -t 0.255114666666667 -s 1 -d 5 -p tcp -e 1040 -c 2 -i 13 -a 2 -x {1.0 7.0 8 ------- null}
r -t 0.256202666666667 -s 5 -d 6 -p tcp -e 1040 -c 2 -i 8 -a 2 -x {1.0 7.0 5 ------- null}
+ -t 0.256202666666667 -s 6 -d 7 -p tcp -e 1040 -c 2 -i 8 -a 2 -x {1.0 7.0 5 ------- null}
- -t 0.256202666666667 -s 6 -d 7 -p tcp -e 1040 -c 2 -i 8 -a 2 -x {1.0 7.0 5 ------- null}
h -t 0.256202666666667 -s 6 -d 7 -p tcp -e 1040 -c 2 -i 8 -a 2 -x {1.0 7.0 -1 ------- null}
r -t 0.256384 -s 7 -d 6 -p ack -e 40 -c 2 -i 11 -a 2 -x {7.0 1.0 4 ------- null}
+ -t 0.256384 -s 6 -d 5 -p ack -e 40 -c 2 -i 11 -a 2 -x {7.0 1.0 4 ------- null}
- -t 0.256384 -s 6 -d 5 -p ack -e 40 -c 2 -i 11 -a 2 -x {7.0 1.0 4 ------- null}
h -t 0.256384 -s 6 -d 5 -p ack -e 40 -c 2 -i 11 -a 2 -x {7.0 1.0 -1 ------- null}
- -t 0.256778666666667 -s 1 -d 5 -p tcp -e 1040 -c 2 -i 13 -a 2 -x {1.0 7.0 8 ------- null}
h -t 0.256778666666667 -s 1 -d 5 -p tcp -e 1040 -c 2 -i 13 -a 2 -x {1.0 7.0 -1 ------- null}
r -t 0.258597333333333 -s 6 -d 5 -p ack -e 40 -c 2 -i 11 -a 2 -x {7.0 1.0 4 ------- null}
+ -t 0.258597333333333 -s 5 -d 1 -p ack -e 40 -c 2 -i 11 -a 2 -x {7.0 1.0 4 ------- null}
- -t 0.258597333333333 -s 5 -d 1 -p ack -e 40 -c 2 -i 11 -a 2 -x {7.0 1.0 4 ------- null}
h -t 0.258597333333333 -s 5 -d 1 -p ack -e 40 -c 2 -i 11 -a 2 -x {7.0 1.0 -1 ------- null}
r -t 0.258778666666667 -s 1 -d 5 -p tcp -e 1040 -c 2 -i 12 -a 2 -x {1.0 7.0 7 ------- null}
+ -t 0.258778666666667 -s 5 -d 6 -p tcp -e 1040 -c 2 -i 12 -a 2 -x {1.0 7.0 7 ------- null}
- -t 0.259749333333333 -s 5 -d 6 -p tcp -e 1040 -c 2 -i 12 -a 2 -x {1.0 7.0 7 ------- null}
h -t 0.259749333333333 -s 5 -d 6 -p tcp -e 1040 -c 2 -i 12 -a 2 -x {1.0 7.0 -1 ------- null}
r -t 0.259866666666667 -s 6 -d 7 -p tcp -e 1040 -c 2 -i 8 -a 2 -x {1.0 7.0 5 ------- null}
+ -t 0.259866666666667 -s 7 -d 6 -p ack -e 40 -c 2 -i 14 -a 2 -x {7.0 1.0 5 ------- null}
- -t 0.259866666666667 -s 7 -d 6 -p ack -e 40 -c 2 -i 14 -a 2 -x {7.0 1.0 5 ------- null}
h -t 0.259866666666667 -s 7 -d 6 -p ack -e 40 -c 2 -i 14 -a 2 -x {7.0 1.0 -1 ------- null}
r -t 0.260442666666667 -s 1 -d 5 -p tcp -e 1040 -c 2 -i 13 -a 2 -x {1.0 7.0 8 ------- null}
+ -t 0.260442666666667 -s 5 -d 6 -p tcp -e 1040 -c 2 -i 13 -a 2 -x {1.0 7.0 8 ------- null}
r -t 0.260661333333333 -s 5 -d 1 -p ack -e 40 -c 2 -i 11 -a 2 -x {7.0 1.0 4 ------- null}
+ -t 0.260661333333333 -s 1 -d 5 -p tcp -e 1040 -c 2 -i 15 -a 2 -x {1.0 7.0 9 ------- null}
- -t 0.260661333333333 -s 1 -d 5 -p tcp -e 1040 -c 2 -i 15 -a 2 -x {1.0 7.0 9 ------- null}
h -t 0.260661333333333 -s 1 -d 5 -p tcp -e 1040 -c 2 -i 15 -a 2 -x {1.0 7.0 -1 ------- null}
+ -t 0.260661333333333 -s 1 -d 5 -p tcp -e 1040 -c 2 -i 16 -a 2 -x {1.0 7.0 10 ------- null}
r -t 0.261749333333333 -s 5 -d 6 -p tcp -e 1040 -c 2 -i 9 -a 2 -x {1.0 7.0 6 ------- null}
+ -t 0.261749333333333 -s 6 -d 7 -p tcp -e 1040 -c 2 -i 9 -a 2 -x {1.0 7.0 6 ------- null}
- -t 0.261749333333333 -s 6 -d 7 -p tcp -e 1040 -c 2 -i 9 -a 2 -x {1.0 7.0 6 ------- null}
h -t 0.261749333333333 -s 6 -d 7 -p tcp -e 1040 -c 2 -i 9 -a 2 -x {1.0 7.0 -1 ------- null}
r -t 0.261930666666667 -s 7 -d 6 -p ack -e 40 -c 2 -i 14 -a 2 -x {7.0 1.0 5 ------- null}
+ -t 0.261930666666667 -s 6 -d 5 -p ack -e 40 -c 2 -i 14 -a 2 -x {7.0 1.0 5 ------- null}
- -t 0.261930666666667 -s 6 -d 5 -p ack -e 40 -c 2 -i 14 -a 2 -x {7.0 1.0 5 ------- null}
h -t 0.261930666666667 -s 6 -d 5 -p ack -e 40 -c 2 -i 14 -a 2 -x {7.0 1.0 -1 ------- null}
- -t 0.262325333333333 -s 1 -d 5 -p tcp -e 1040 -c 2 -i 16 -a 2 -x {1.0 7.0 10 ------- null}
h -t 0.262325333333333 -s 1 -d 5 -p tcp -e 1040 -c 2 -i 16 -a 2 -x {1.0 7.0 -1 ------- null}
r -t 0.264144 -s 6 -d 5 -p ack -e 40 -c 2 -i 14 -a 2 -x {7.0 1.0 5 ------- null}
+ -t 0.264144 -s 5 -d 1 -p ack -e 40 -c 2 -i 14 -a 2 -x {7.0 1.0 5 ------- null}
- -t 0.264144 -s 5 -d 1 -p ack -e 40 -c 2 -i 14 -a 2 -x {7.0 1.0 5 ------- null}
h -t 0.264144 -s 5 -d 1 -p ack -e 40 -c 2 -i 14 -a 2 -x {7.0 1.0 -1 ------- null}
r -t 0.264325333333333 -s 1 -d 5 -p tcp -e 1040 -c 2 -i 15 -a 2 -x {1.0 7.0 9 ------- null}
+ -t 0.264325333333333 -s 5 -d 6 -p tcp -e 1040 -c 2 -i 15 -a 2 -x {1.0 7.0 9 ------- null}
- -t 0.265296 -s 5 -d 6 -p tcp -e 1040 -c 2 -i 13 -a 2 -x {1.0 7.0 8 ------- null}
h -t 0.265296 -s 5 -d 6 -p tcp -e 1040 -c 2 -i 13 -a 2 -x {1.0 7.0 -1 ------- null}
r -t 0.265413333333333 -s 6 -d 7 -p tcp -e 1040 -c 2 -i 9 -a 2 -x {1.0 7.0 6 ------- null}
+ -t 0.265413333333333 -s 7 -d 6 -p ack -e 40 -c 2 -i 17 -a 2 -x {7.0 1.0 6 ------- null}
- -t 0.265413333333333 -s 7 -d 6 -p ack -e 40 -c 2 -i 17 -a 2 -x {7.0 1.0 6 ------- null}
h -t 0.265413333333333 -s 7 -d 6 -p ack -e 40 -c 2 -i 17 -a 2 -x {7.0 1.0 -1 ------- null}
r -t 0.265989333333333 -s 1 -d 5 -p tcp -e 1040 -c 2 -i 16 -a 2 -x {1.0 7.0 10 ------- null}
+ -t 0.265989333333333 -s 5 -d 6 -p tcp -e 1040 -c 2 -i 16 -a 2 -x {1.0 7.0 10 ------- null}
r -t 0.266208 -s 5 -d 1 -p ack -e 40 -c 2 -i 14 -a 2 -x {7.0 1.0 5 ------- null}
+ -t 0.266208 -s 1 -d 5 -p tcp -e 1040 -c 2 -i 18 -a 2 -x {1.0 7.0 11 ------- null}
- -t 0.266208 -s 1 -d 5 -p tcp -e 1040 -c 2 -i 18 -a 2 -x {1.0 7.0 11 ------- null}
h -t 0.266208 -s 1 -d 5 -p tcp -e 1040 -c 2 -i 18 -a 2 -x {1.0 7.0 -1 ------- null}
+ -t 0.266208 -s 1 -d 5 -p tcp -e 1040 -c 2 -i 19 -a 2 -x {1.0 7.0 12 ------- null}
r -t 0.267296 -s 5 -d 6 -p tcp -e 1040 -c 2 -i 12 -a 2 -x {1.0 7.0 7 ------- null}
+ -t 0.267296 -s 6 -d 7 -p tcp -e 1040 -c 2 -i 12 -a 2 -x {1.0 7.0 7 ------- null}
- -t 0.267296 -s 6 -d 7 -p tcp -e 1040 -c 2 -i 12 -a 2 -x {1.0 7.0 7 ------- null}
h -t 0.267296 -s 6 -d 7 -p tcp -e 1040 -c 2 -i 12 -a 2 -x {1.0 7.0 -1 ------- null}
r -t 0.267477333333333 -s 7 -d 6 -p ack -e 40 -c 2 -i 17 -a 2 -x {7.0 1.0 6 ------- null}
+ -t 0.267477333333333 -s 6 -d 5 -p ack -e 40 -c 2 -i 17 -a 2 -x {7.0 1.0 6 ------- null}
- -t 0.267477333333333 -s 6 -d 5 -p ack -e 40 -c 2 -i 17 -a 2 -x {7.0 1.0 6 ------- null}
h -t 0.267477333333333 -s 6 -d 5 -p ack -e 40 -c 2 -i 17 -a 2 -x {7.0 1.0 -1 ------- null}
- -t 0.267872 -s 1 -d 5 -p tcp -e 1040 -c 2 -i 19 -a 2 -x {1.0 7.0 12 ------- null}
h -t 0.267872 -s 1 -d 5 -p tcp -e 1040 -c 2 -i 19 -a 2 -x {1.0 7.0 -1 ------- null}
r -t 0.269690666666667 -s 6 -d 5 -p ack -e 40 -c 2 -i 17 -a 2 -x {7.0 1.0 6 ------- null}
+ -t 0.269690666666667 -s 5 -d 1 -p ack -e 40 -c 2 -i 17 -a 2 -x {7.0 1.0 6 ------- null}
- -t 0.269690666666667 -s 5 -d 1 -p ack -e 40 -c 2 -i 17 -a 2 -x {7.0 1.0 6 ------- null}
h -t 0.269690666666667 -s 5 -d 1 -p ack -e 40 -c 2 -i 17 -a 2 -x {7.0 1.0 -1 ------- null}
r -t 0.269872 -s 1 -d 5 -p tcp -e 1040 -c 2 -i 18 -a 2 -x {1.0 7.0 11 ------- null}
+ -t 0.269872 -s 5 -d 6 -p tcp -e 1040 -c 2 -i 18 -a 2 -x {1.0 7.0 11 ------- null}
- -t 0.270842666666667 -s 5 -d 6 -p tcp -e 1040 -c 2 -i 15 -a 2 -x {1.0 7.0 9 ------- null}
h -t 0.270842666666667 -s 5 -d 6 -p tcp -e 1040 -c 2 -i 15 -a 2 -x {1.0 7.0 -1 ------- null}
r -t 0.27096 -s 6 -d 7 -p tcp -e 1040 -c 2 -i 12 -a 2 -x {1.0 7.0 7 ------- null}
+ -t 0.27096 -s 7 -d 6 -p ack -e 40 -c 2 -i 20 -a 2 -x {7.0 1.0 7 ------- null}
- -t 0.27096 -s 7 -d 6 -p ack -e 40 -c 2 -i 20 -a 2 -x {7.0 1.0 7 ------- null}
h -t 0.27096 -s 7 -d 6 -p ack -e 40 -c 2 -i 20 -a 2 -x {7.0 1.0 -1 ------- null}
r -t 0.271536 -s 1 -d 5 -p tcp -e 1040 -c 2 -i 19 -a 2 -x {1.0 7.0 12 ------- null}
+ -t 0.271536 -s 5 -d 6 -p tcp -e 1040 -c 2 -i 19 -a 2 -x {1.0 7.0 12 ------- null}
r -t 0.271754666666667 -s 5 -d 1 -p ack -e 40 -c 2 -i 17 -a 2 -x {7.0 1.0 6 ------- null}
+ -t 0.271754666666667 -s 1 -d 5 -p tcp -e 1040 -c 2 -i 21 -a 2 -x {1.0 7.0 13 ------- null}
- -t 0.271754666666667 -s 1 -d 5 -p tcp -e 1040 -c 2 -i 21 -a 2 -x {1.0 7.0 13 ------- null}
h -t 0.271754666666667 -s 1 -d 5 -p tcp -e 1040 -c 2 -i 21 -a 2 -x {1.0 7.0 -1 ------- null}
+ -t 0.271754666666667 -s 1 -d 5 -p tcp -e 1040 -c 2 -i 22 -a 2 -x {1.0 7.0 14 ------- null}
r -t 0.272842666666667 -s 5 -d 6 -p tcp -e 1040 -c 2 -i 13 -a 2 -x {1.0 7.0 8 ------- null}
+ -t 0.272842666666667 -s 6 -d 7 -p tcp -e 1040 -c 2 -i 13 -a 2 -x {1.0 7.0 8 ------- null}
- -t 0.272842666666667 -s 6 -d 7 -p tcp -e 1040 -c 2 -i 13 -a 2 -x {1.0 7.0 8 ------- null}
h -t 0.272842666666667 -s 6 -d 7 -p tcp -e 1040 -c 2 -i 13 -a 2 -x {1.0 7.0 -1 ------- null}
r -t 0.273024 -s 7 -d 6 -p ack -e 40 -c 2 -i 20 -a 2 -x {7.0 1.0 7 ------- null}
+ -t 0.273024 -s 6 -d 5 -p ack -e 40 -c 2 -i 20 -a 2 -x {7.0 1.0 7 ------- null}
- -t 0.273024 -s 6 -d 5 -p ack -e 40 -c 2 -i 20 -a 2 -x {7.0 1.0 7 ------- null}
h -t 0.273024 -s 6 -d 5 -p ack -e 40 -c 2 -i 20 -a 2 -x {7.0 1.0 -1 ------- null}
- -t 0.273418666666667 -s 1 -d 5 -p tcp -e 1040 -c 2 -i 22 -a 2 -x {1.0 7.0 14 ------- null}
h -t 0.273418666666667 -s 1 -d 5 -p tcp -e 1040 -c 2 -i 22 -a 2 -x {1.0 7.0 -1 ------- null}
r -t 0.275237333333333 -s 6 -d 5 -p ack -e 40 -c 2 -i 20 -a 2 -x {7.0 1.0 7 ------- null}
+ -t 0.275237333333333 -s 5 -d 1 -p ack -e 40 -c 2 -i 20 -a 2 -x {7.0 1.0 7 ------- null}
- -t 0.275237333333333 -s 5 -d 1 -p ack -e 40 -c 2 -i 20 -a 2 -x {7.0 1.0 7 ------- null}
h -t 0.275237333333333 -s 5 -d 1 -p ack -e 40 -c 2 -i 20 -a 2 -x {7.0 1.0 -1 ------- null}
r -t 0.275418666666667 -s 1 -d 5 -p tcp -e 1040 -c 2 -i 21 -a 2 -x {1.0 7.0 13 ------- null}
+ -t 0.275418666666667 -s 5 -d 6 -p tcp -e 1040 -c 2 -i 21 -a 2 -x {1.0 7.0 13 ------- null}
- -t 0.276389333333333 -s 5 -d 6 -p tcp -e 1040 -c 2 -i 16 -a 2 -x {1.0 7.0 10 ------- null}
h -t 0.276389333333333 -s 5 -d 6 -p tcp -e 1040 -c 2 -i 16 -a 2 -x {1.0 7.0 -1 ------- null}
r -t 0.276506666666667 -s 6 -d 7 -p tcp -e 1040 -c 2 -i 13 -a 2 -x {1.0 7.0 8 ------- null}
+ -t 0.276506666666667 -s 7 -d 6 -p ack -e 40 -c 2 -i 23 -a 2 -x {7.0 1.0 8 ------- null}
- -t 0.276506666666667 -s 7 -d 6 -p ack -e 40 -c 2 -i 23 -a 2 -x {7.0 1.0 8 ------- null}
h -t 0.276506666666667 -s 7 -d 6 -p ack -e 40 -c 2 -i 23 -a 2 -x {7.0 1.0 -1 ------- null}
r -t 0.277082666666667 -s 1 -d 5 -p tcp -e 1040 -c 2 -i 22 -a 2 -x {1.0 7.0 14 ------- null}
+ -t 0.277082666666667 -s 5 -d 6 -p tcp -e 1040 -c 2 -i 22 -a 2 -x {1.0 7.0 14 ------- null}
r -t 0.277301333333333 -s 5 -d 1 -p ack -e 40 -c 2 -i 20 -a 2 -x {7.0 1.0 7 ------- null}
+ -t 0.277301333333333 -s 1 -d 5 -p tcp -e 1040 -c 2 -i 24 -a 2 -x {1.0 7.0 15 ------- null}
- -t 0.277301333333333 -s 1 -d 5 -p tcp -e 1040 -c 2 -i 24 -a 2 -x {1.0 7.0 15 ------- null}
h -t 0.277301333333333 -s 1 -d 5 -p tcp -e 1040 -c 2 -i 24 -a 2 -x {1.0 7.0 -1 ------- null}
+ -t 0.277301333333333 -s 1 -d 5 -p tcp -e 1040 -c 2 -i 25 -a 2 -x {1.0 7.0 16 ------- null}
r -t 0.278389333333333 -s 5 -d 6 -p tcp -e 1040 -c 2 -i 15 -a 2 -x {1.0 7.0 9 ------- null}
+ -t 0.278389333333333 -s 6 -d 7 -p tcp -e 1040 -c 2 -i 15 -a 2 -x {1.0 7.0 9 ------- null}
- -t 0.278389333333333 -s 6 -d 7 -p tcp -e 1040 -c 2 -i 15 -a 2 -x {1.0 7.0 9 ------- null}
h -t 0.278389333333333 -s 6 -d 7 -p tcp -e 1040 -c 2 -i 15 -a 2 -x {1.0 7.0 -1 ------- null}
r -t 0.278570666666667 -s 7 -d 6 -p ack -e 40 -c 2 -i 23 -a 2 -x {7.0 1.0 8 ------- null}
+ -t 0.278570666666667 -s 6 -d 5 -p ack -e 40 -c 2 -i 23 -a 2 -x {7.0 1.0 8 ------- null}
- -t 0.278570666666667 -s 6 -d 5 -p ack -e 40 -c 2 -i 23 -a 2 -x {7.0 1.0 8 ------- null}
h -t 0.278570666666667 -s 6 -d 5 -p ack -e 40 -c 2 -i 23 -a 2 -x {7.0 1.0 -1 ------- null}
- -t 0.278965333333333 -s 1 -d 5 -p tcp -e 1040 -c 2 -i 25 -a 2 -x {1.0 7.0 16 ------- null}
h -t 0.278965333333333 -s 1 -d 5 -p tcp -e 1040 -c 2 -i 25 -a 2 -x {1.0 7.0 -1 ------- null}
r -t 0.280784 -s 6 -d 5 -p ack -e 40 -c 2 -i 23 -a 2 -x {7.0 1.0 8 ------- null}
+ -t 0.280784 -s 5 -d 1 -p ack -e 40 -c 2 -i 23 -a 2 -x {7.0 1.0 8 ------- null}
- -t 0.280784 -s 5 -d 1 -p ack -e 40 -c 2 -i 23 -a 2 -x {7.0 1.0 8 ------- null}
h -t 0.280784 -s 5 -d 1 -p ack -e 40 -c 2 -i 23 -a 2 -x {7.0 1.0 -1 ------- null}
r -t 0.280965333333333 -s 1 -d 5 -p tcp -e 1040 -c 2 -i 24 -a 2 -x {1.0 7.0 15 ------- null}
+ -t 0.280965333333333 -s 5 -d 6 -p tcp -e 1040 -c 2 -i 24 -a 2 -x {1.0 7.0 15 ------- null}
- -t 0.281936 -s 5 -d 6 -p tcp -e 1040 -c 2 -i 18 -a 2 -x {1.0 7.0 11 ------- null}
h -t 0.281936 -s 5 -d 6 -p tcp -e 1040 -c 2 -i 18 -a 2 -x {1.0 7.0 -1 ------- null}
r -t 0.282053333333333 -s 6 -d 7 -p tcp -e 1040 -c 2 -i 15 -a 2 -x {1.0 7.0 9 ------- null}
+ -t 0.282053333333333 -s 7 -d 6 -p ack -e 40 -c 2 -i 26 -a 2 -x {7.0 1.0 9 ------- null}
- -t 0.282053333333333 -s 7 -d 6 -p ack -e 40 -c 2 -i 26 -a 2 -x {7.0 1.0 9 ------- null}
h -t 0.282053333333333 -s 7 -d 6 -p ack -e 40 -c 2 -i 26 -a 2 -x {7.0 1.0 -1 ------- null}
r -t 0.282629333333333 -s 1 -d 5 -p tcp -e 1040 -c 2 -i 25 -a 2 -x {1.0 7.0 16 ------- null}
+ -t 0.282629333333333 -s 5 -d 6 -p tcp -e 1040 -c 2 -i 25 -a 2 -x {1.0 7.0 16 ------- null}
r -t 0.282848 -s 5 -d 1 -p ack -e 40 -c 2 -i 23 -a 2 -x {7.0 1.0 8 ------- null}
+ -t 0.282848 -s 1 -d 5 -p tcp -e 1040 -c 2 -i 27 -a 2 -x {1.0 7.0 17 ------- null}
- -t 0.282848 -s 1 -d 5 -p tcp -e 1040 -c 2 -i 27 -a 2 -x {1.0 7.0 17 ------- null}
h -t 0.282848 -s 1 -d 5 -p tcp -e 1040 -c 2 -i 27 -a 2 -x {1.0 7.0 -1 ------- null}
+ -t 0.282848 -s 1 -d 5 -p tcp -e 1040 -c 2 -i 28 -a 2 -x {1.0 7.0 18 ------- null}
r -t 0.283936 -s 5 -d 6 -p tcp -e 1040 -c 2 -i 16 -a 2 -x {1.0 7.0 10 ------- null}
+ -t 0.283936 -s 6 -d 7 -p tcp -e 1040 -c 2 -i 16 -a 2 -x {1.0 7.0 10 ------- null}
- -t 0.283936 -s 6 -d 7 -p tcp -e 1040 -c 2 -i 16 -a 2 -x {1.0 7.0 10 ------- null}
h -t 0.283936 -s 6 -d 7 -p tcp -e 1040 -c 2 -i 16 -a 2 -x {1.0 7.0 -1 ------- null}
r -t 0.284117333333333 -s 7 -d 6 -p ack -e 40 -c 2 -i 26 -a 2 -x {7.0 1.0 9 ------- null}
+ -t 0.284117333333333 -s 6 -d 5 -p ack -e 40 -c 2 -i 26 -a 2 -x {7.0 1.0 9 ------- null}
- -t 0.284117333333333 -s 6 -d 5 -p ack -e 40 -c 2 -i 26 -a 2 -x {7.0 1.0 9 ------- null}
h -t 0.284117333333333 -s 6 -d 5 -p ack -e 40 -c 2 -i 26 -a 2 -x {7.0 1.0 -1 ------- null}
- -t 0.284512 -s 1 -d 5 -p tcp -e 1040 -c 2 -i 28 -a 2 -x {1.0 7.0 18 ------- null}
h -t 0.284512 -s 1 -d 5 -p tcp -e 1040 -c 2 -i 28 -a 2 -x {1.0 7.0 -1 ------- null}
r -t 0.286330666666667 -s 6 -d 5 -p ack -e 40 -c 2 -i 26 -a 2 -x {7.0 1.0 9 ------- null}
+ -t 0.286330666666667 -s 5 -d 1 -p ack -e 40 -c 2 -i 26 -a 2 -x {7.0 1.0 9 ------- null}
- -t 0.286330666666667 -s 5 -d 1 -p ack -e 40 -c 2 -i 26 -a 2 -x {7.0 1.0 9 ------- null}
h -t 0.286330666666667 -s 5 -d 1 -p ack -e 40 -c 2 -i 26 -a 2 -x {7.0 1.0 -1 ------- null}
r -t 0.286512 -s 1 -d 5 -p tcp -e 1040 -c 2 -i 27 -a 2 -x {1.0 7.0 17 ------- null}
+ -t 0.286512 -s 5 -d 6 -p tcp -e 1040 -c 2 -i 27 -a 2 -x {1.0 7.0 17 ------- null}
- -t 0.287482666666667 -s 5 -d 6 -p tcp -e 1040 -c 2 -i 19 -a 2 -x {1.0 7.0 12 ------- null}
h -t 0.287482666666667 -s 5 -d 6 -p tcp -e 1040 -c 2 -i 19 -a 2 -x {1.0 7.0 -1 ------- null}
r -t 0.2876 -s 6 -d 7 -p tcp -e 1040 -c 2 -i 16 -a 2 -x {1.0 7.0 10 ------- null}
+ -t 0.2876 -s 7 -d 6 -p ack -e 40 -c 2 -i 29 -a 2 -x {7.0 1.0 10 ------- null}
- -t 0.2876 -s 7 -d 6 -p ack -e 40 -c 2 -i 29 -a 2 -x {7.0 1.0 10 ------- null}
h -t 0.2876 -s 7 -d 6 -p ack -e 40 -c 2 -i 29 -a 2 -x {7.0 1.0 -1 ------- null}
r -t 0.288176 -s 1 -d 5 -p tcp -e 1040 -c 2 -i 28 -a 2 -x {1.0 7.0 18 ------- null}
+ -t 0.288176 -s 5 -d 6 -p tcp -e 1040 -c 2 -i 28 -a 2 -x {1.0 7.0 18 ------- null}
r -t 0.288394666666667 -s 5 -d 1 -p ack -e 40 -c 2 -i 26 -a 2 -x {7.0 1.0 9 ------- null}
+ -t 0.288394666666667 -s 1 -d 5 -p tcp -e 1040 -c 2 -i 30 -a 2 -x {1.0 7.0 19 ------- null}
- -t 0.288394666666667 -s 1 -d 5 -p tcp -e 1040 -c 2 -i 30 -a 2 -x {1.0 7.0 19 ------- null}
h -t 0.288394666666667 -s 1 -d 5 -p tcp -e 1040 -c 2 -i 30 -a 2 -x {1.0 7.0 -1 ------- null}
+ -t 0.288394666666667 -s 1 -d 5 -p tcp -e 1040 -c 2 -i 31 -a 2 -x {1.0 7.0 20 ------- null}
r -t 0.289482666666667 -s 5 -d 6 -p tcp -e 1040 -c 2 -i 18 -a 2 -x {1.0 7.0 11 ------- null}
+ -t 0.289482666666667 -s 6 -d 7 -p tcp -e 1040 -c 2 -i 18 -a 2 -x {1.0 7.0 11 ------- null}
- -t 0.289482666666667 -s 6 -d 7 -p tcp -e 1040 -c 2 -i 18 -a 2 -x {1.0 7.0 11 ------- null}
h -t 0.289482666666667 -s 6 -d 7 -p tcp -e 1040 -c 2 -i 18 -a 2 -x {1.0 7.0 -1 ------- null}
r -t 0.289664 -s 7 -d 6 -p ack -e 40 -c 2 -i 29 -a 2 -x {7.0 1.0 10 ------- null}
+ -t 0.289664 -s 6 -d 5 -p ack -e 40 -c 2 -i 29 -a 2 -x {7.0 1.0 10 ------- null}
- -t 0.289664 -s 6 -d 5 -p ack -e 40 -c 2 -i 29 -a 2 -x {7.0 1.0 10 ------- null}
h -t 0.289664 -s 6 -d 5 -p ack -e 40 -c 2 -i 29 -a 2 -x {7.0 1.0 -1 ------- null}
- -t 0.290058666666667 -s 1 -d 5 -p tcp -e 1040 -c 2 -i 31 -a 2 -x {1.0 7.0 20 ------- null}
h -t 0.290058666666667 -s 1 -d 5 -p tcp -e 1040 -c 2 -i 31 -a 2 -x {1.0 7.0 -1 ------- null}
r -t 0.291877333333333 -s 6 -d 5 -p ack -e 40 -c 2 -i 29 -a 2 -x {7.0 1.0 10 ------- null}
+ -t 0.291877333333333 -s 5 -d 1 -p ack -e 40 -c 2 -i 29 -a 2 -x {7.0 1.0 10 ------- null}
- -t 0.291877333333333 -s 5 -d 1 -p ack -e 40 -c 2 -i 29 -a 2 -x {7.0 1.0 10 ------- null}
h -t 0.291877333333333 -s 5 -d 1 -p ack -e 40 -c 2 -i 29 -a 2 -x {7.0 1.0 -1 ------- null}
r -t 0.292058666666667 -s 1 -d 5 -p tcp -e 1040 -c 2 -i 30 -a 2 -x {1.0 7.0 19 ------- null}
+ -t 0.292058666666667 -s 5 -d 6 -p tcp -e 1040 -c 2 -i 30 -a 2 -x {1.0 7.0 19 ------- null}
- -t 0.293029333333333 -s 5 -d 6 -p tcp -e 1040 -c 2 -i 21 -a 2 -x {1.0 7.0 13 ------- null}
h -t 0.293029333333333 -s 5 -d 6 -p tcp -e 1040 -c 2 -i 21 -a 2 -x {1.0 7.0 -1 ------- null}
r -t 0.293146666666667 -s 6 -d 7 -p tcp -e 1040 -c 2 -i 18 -a 2 -x {1.0 7.0 11 ------- null}
+ -t 0.293146666666667 -s 7 -d 6 -p ack -e 40 -c 2 -i 32 -a 2 -x {7.0 1.0 11 ------- null}
- -t 0.293146666666667 -s 7 -d 6 -p ack -e 40 -c 2 -i 32 -a 2 -x {7.0 1.0 11 ------- null}